 Entering Gaussian System, Link 0=/home/cadd/g09/g09
 Input=TC.com
 Output=TC.log
 Initial command:
 /home/cadd//g09/l1.exe "/home/cadd/g09/scratch/Gau-17651.inp" -scrdir="/home/cadd/g09/scratch/"
 Entering Link 1 = /home/cadd//g09/l1.exe PID=     17652.
  
 Copyright (c) 1988,1990,1992,1993,1995,1998,2003,2009,2013,
            Gaussian, Inc.  All Rights Reserved.
  
 This is part of the Gaussian(R) 09 program.  It is based on
 the Gaussian(R) 03 system (copyright 2003, Gaussian, Inc.),
 the Gaussian(R) 98 system (copyright 1998, Gaussian, Inc.),
 the Gaussian(R) 94 system (copyright 1995, Gaussian, Inc.),
 the Gaussian 92(TM) system (copyright 1992, Gaussian, Inc.),
 the Gaussian 90(TM) system (copyright 1990, Gaussian, Inc.),
 the Gaussian 88(TM) system (copyright 1988, Gaussian, Inc.),
 the Gaussian 86(TM) system (copyright 1986, Carnegie Mellon
 University), and the Gaussian 82(TM) system (copyright 1983,
 Carnegie Mellon University). Gaussian is a federally registered
 trademark of Gaussian, Inc.
  
 This software contains proprietary and confidential information,
 including trade secrets, belonging to Gaussian, Inc.
  
 This software is provided under written license and may be
 used, copied, transmitted, or stored only in accord with that
 written license.
  
 The following legend is applicable only to US Government
 contracts under FAR:
  
                    RESTRICTED RIGHTS LEGEND
  
 Use, reproduction and disclosure by the US Government is
 subject to restrictions as set forth in subparagraphs (a)
 and (c) of the Commercial Computer Software - Restricted
 Rights clause in FAR 52.227-19.
  
 Gaussian, Inc.
 340 Quinnipiac St., Bldg. 40, Wallingford CT 06492
  
  
 ---------------------------------------------------------------
 Warning -- This program may not be used in any manner that
 competes with the business of Gaussian, Inc. or will provide
 assistance to any competitor of Gaussian, Inc.  The licensee
 of this program is prohibited from giving any competitor of
 Gaussian, Inc. access to this program.  By using this program,
 the user acknowledges that Gaussian, Inc. is engaged in the
 business of creating and licensing software in the field of
 computational chemistry and represents and warrants to the
 licensee that it is not a competitor of Gaussian, Inc. and that
 it will not use this program in any manner prohibited above.
 ---------------------------------------------------------------
  

 Cite this work as:
 Gaussian 09, Revision D.01,
 M. J. Frisch, G. W. Trucks, H. B. Schlegel, G. E. Scuseria, 
 M. A. Robb, J. R. Cheeseman, G. Scalmani, V. Barone, B. Mennucci, 
 G. A. Petersson, H. Nakatsuji, M. Caricato, X. Li, H. P. Hratchian, 
 A. F. Izmaylov, J. Bloino, G. Zheng, J. L. Sonnenberg, M. Hada, 
 M. Ehara, K. Toyota, R. Fukuda, J. Hasegawa, M. Ishida, T. Nakajima, 
 Y. Honda, O. Kitao, H. Nakai, T. Vreven, J. A. Montgomery, Jr., 
 J. E. Peralta, F. Ogliaro, M. Bearpark, J. J. Heyd, E. Brothers, 
 K. N. Kudin, V. N. Staroverov, T. Keith, R. Kobayashi, J. Normand, 
 K. Raghavachari, A. Rendell, J. C. Burant, S. S. Iyengar, J. Tomasi, 
 M. Cossi, N. Rega, J. M. Millam, M. Klene, J. E. Knox, J. B. Cross, 
 V. Bakken, C. Adamo, J. Jaramillo, R. Gomperts, R. E. Stratmann, 
 O. Yazyev, A. J. Austin, R. Cammi, C. Pomelli, J. W. Ochterski, 
 R. L. Martin, K. Morokuma, V. G. Zakrzewski, G. A. Voth, 
 P. Salvador, J. J. Dannenberg, S. Dapprich, A. D. Daniels, 
 O. Farkas, J. B. Foresman, J. V. Ortiz, J. Cioslowski, 
 and D. J. Fox, Gaussian, Inc., Wallingford CT, 2013.
 
 ******************************************
 Gaussian 09:  ES64L-G09RevD.01 24-Apr-2013
                13-Dec-2022 
 ******************************************
 %mem=512MB
 %nprocshared=2
 Will use up to    2 processors via shared memory.
 %chk=TC.chk
 --------------------------------------
 # opt b3lyp/6-311++g geom=connectivity
 --------------------------------------
 1/14=-1,18=20,19=15,26=3,38=1,57=2/1,3;
 2/9=110,12=2,17=6,18=5,40=1/2;
 3/5=4,6=6,7=1010,11=2,16=1,25=1,30=1,71=1,74=-5/1,2,3;
 4//1;
 5/5=2,38=5/2;
 6/7=2,8=2,9=2,10=2,28=1/1;
 7//1,2,3,16;
 1/14=-1,18=20,19=15,26=3/3(2);
 2/9=110/2;
 99//99;
 2/9=110/2;
 3/5=4,6=6,7=1010,11=2,16=1,25=1,30=1,71=1,74=-5/1,2,3;
 4/5=5,16=3,69=1/1;
 5/5=2,38=5/2;
 7//1,2,3,16;
 1/14=-1,18=20,19=15,26=3/3(-5);
 2/9=110/2;
 6/7=2,8=2,9=2,10=2,19=2,28=1/1;
 99/9=1/99;
 ------
 opt tc
 ------
 Symbolic Z-matrix:
 Charge =  0 Multiplicity = 1
 O(PDBName=O1)         5.61      1.115     0.193 
 O(PDBName=O2)         5.196    -1.742     0.233 
 O(PDBName=O3)         5.949     2.101    -1.789 
 O(PDBName=O4)         8.964    -0.228    -0.147 
 O(PDBName=O5)         4.131    -1.441     2.185 
 C(PDBName=C1)         4.077     2.857    -0.383 
 C(PDBName=C2)         2.924    -2.458     0.295 
 C(PDBName=C3)         5.27      2.035    -0.764 
 C(PDBName=C4)         6.625     0.151    -0.131 
 C(PDBName=C5)         4.078    -1.833     1.019 
 C(PDBName=C6)         6.346    -1.068     0.75 
 C(PDBName=C7)         7.993     0.756     0.195 
 C(PDBName=C8)         10.293    0.289    -0.076 
 H(PDBName=H1)         3.957     3.67     -1.147 
 H(PDBName=H2)         4.267     3.331     0.616 
 H(PDBName=H3)         2.874    -3.535     0.607 
 H(PDBName=H4)         3.107    -2.428    -0.811 
 H(PDBName=H5)         6.568    -0.121    -1.22 
 H(PDBName=H6)         6.207    -0.768     1.82 
 H(PDBName=H7)         7.197    -1.794     0.642 
 H(PDBName=H8)         8.073     1.001     1.287 
 H(PDBName=H9)         8.142     1.687    -0.414 
 H(PDBName=H10)        10.411    1.146    -0.789 
 H(PDBName=H11)        10.513    0.639     0.967 
 H(PDBName=H12)        3.183     2.235    -0.345 
 H(PDBName=H13)        1.995    -1.945     0.543 
 H(PDBName=H14)        10.997   -0.498    -0.344 
 

 GradGradGradGradGradGradGradGradGradGradGradGradGradGradGradGradGradGrad
 Berny optimization.
 Initialization pass.
                           ----------------------------
                           !    Initial Parameters    !
                           ! (Angstroms and Degrees)  !
 --------------------------                            --------------------------
 ! Name  Definition              Value          Derivative Info.                !
 --------------------------------------------------------------------------------
 ! R1    R(1,8)                  1.3703         estimate D2E/DX2                !
 ! R2    R(1,9)                  1.4368         estimate D2E/DX2                !
 ! R3    R(2,10)                 1.3697         estimate D2E/DX2                !
 ! R4    R(2,11)                 1.4297         estimate D2E/DX2                !
 ! R5    R(3,8)                  1.2313         estimate D2E/DX2                !
 ! R6    R(4,12)                 1.4241         estimate D2E/DX2                !
 ! R7    R(4,13)                 1.4278         estimate D2E/DX2                !
 ! R8    R(5,10)                 1.2313         estimate D2E/DX2                !
 ! R9    R(6,8)                  1.498          estimate D2E/DX2                !
 ! R10   R(6,14)                 1.1221         estimate D2E/DX2                !
 ! R11   R(6,15)                 1.122          estimate D2E/DX2                !
 ! R12   R(6,25)                 1.0898         estimate D2E/DX2                !
 ! R13   R(7,10)                 1.4988         estimate D2E/DX2                !
 ! R14   R(7,16)                 1.1224         estimate D2E/DX2                !
 ! R15   R(7,17)                 1.1214         estimate D2E/DX2                !
 ! R16   R(7,26)                 1.0898         estimate D2E/DX2                !
 ! R17   R(9,11)                 1.5297         estimate D2E/DX2                !
 ! R18   R(9,12)                 1.5309         estimate D2E/DX2                !
 ! R19   R(9,18)                 1.1239         estimate D2E/DX2                !
 ! R20   R(11,19)                1.1199         estimate D2E/DX2                !
 ! R21   R(11,20)                1.1238         estimate D2E/DX2                !
 ! R22   R(12,21)                1.122          estimate D2E/DX2                !
 ! R23   R(12,22)                1.1224         estimate D2E/DX2                !
 ! R24   R(13,23)                1.121          estimate D2E/DX2                !
 ! R25   R(13,24)                1.1219         estimate D2E/DX2                !
 ! R26   R(13,27)                1.0894         estimate D2E/DX2                !
 ! A1    A(8,1,9)              117.919          estimate D2E/DX2                !
 ! A2    A(10,2,11)            118.7095         estimate D2E/DX2                !
 ! A3    A(12,4,13)            111.8711         estimate D2E/DX2                !
 ! A4    A(8,6,14)             108.0334         estimate D2E/DX2                !
 ! A5    A(8,6,15)             108.8698         estimate D2E/DX2                !
 ! A6    A(8,6,25)             110.4261         estimate D2E/DX2                !
 ! A7    A(14,6,15)            108.5582         estimate D2E/DX2                !
 ! A8    A(14,6,25)            110.4603         estimate D2E/DX2                !
 ! A9    A(15,6,25)            110.4272         estimate D2E/DX2                !
 ! A10   A(10,7,16)            107.4665         estimate D2E/DX2                !
 ! A11   A(10,7,17)            109.8523         estimate D2E/DX2                !
 ! A12   A(10,7,26)            110.4939         estimate D2E/DX2                !
 ! A13   A(16,7,17)            107.8839         estimate D2E/DX2                !
 ! A14   A(16,7,26)            110.5148         estimate D2E/DX2                !
 ! A15   A(17,7,26)            110.5447         estimate D2E/DX2                !
 ! A16   A(1,8,3)              118.7202         estimate D2E/DX2                !
 ! A17   A(1,8,6)              112.8528         estimate D2E/DX2                !
 ! A18   A(3,8,6)              128.4249         estimate D2E/DX2                !
 ! A19   A(1,9,11)             106.0179         estimate D2E/DX2                !
 ! A20   A(1,9,12)             108.5469         estimate D2E/DX2                !
 ! A21   A(1,9,18)             110.1841         estimate D2E/DX2                !
 ! A22   A(11,9,12)            110.8093         estimate D2E/DX2                !
 ! A23   A(11,9,18)            110.851          estimate D2E/DX2                !
 ! A24   A(12,9,18)            110.3217         estimate D2E/DX2                !
 ! A25   A(2,10,5)             119.1535         estimate D2E/DX2                !
 ! A26   A(2,10,7)             112.2696         estimate D2E/DX2                !
 ! A27   A(5,10,7)             128.5599         estimate D2E/DX2                !
 ! A28   A(2,11,9)             108.3075         estimate D2E/DX2                !
 ! A29   A(2,11,19)            111.8355         estimate D2E/DX2                !
 ! A30   A(2,11,20)            105.6523         estimate D2E/DX2                !
 ! A31   A(9,11,19)            111.0652         estimate D2E/DX2                !
 ! A32   A(9,11,20)            108.7443         estimate D2E/DX2                !
 ! A33   A(19,11,20)           111.0301         estimate D2E/DX2                !
 ! A34   A(4,12,9)             106.5633         estimate D2E/DX2                !
 ! A35   A(4,12,21)            109.6329         estimate D2E/DX2                !
 ! A36   A(4,12,22)            110.6286         estimate D2E/DX2                !
 ! A37   A(9,12,21)            110.9317         estimate D2E/DX2                !
 ! A38   A(9,12,22)            109.3217         estimate D2E/DX2                !
 ! A39   A(21,12,22)           109.7235         estimate D2E/DX2                !
 ! A40   A(4,13,23)            110.0696         estimate D2E/DX2                !
 ! A41   A(4,13,24)            109.9811         estimate D2E/DX2                !
 ! A42   A(4,13,27)            109.1289         estimate D2E/DX2                !
 ! A43   A(23,13,24)           109.3988         estimate D2E/DX2                !
 ! A44   A(23,13,27)           109.1338         estimate D2E/DX2                !
 ! A45   A(24,13,27)           109.1075         estimate D2E/DX2                !
 ! D1    D(9,1,8,3)             -8.5406         estimate D2E/DX2                !
 ! D2    D(9,1,8,6)            171.9506         estimate D2E/DX2                !
 ! D3    D(8,1,9,11)          -153.9094         estimate D2E/DX2                !
 ! D4    D(8,1,9,12)            87.0012         estimate D2E/DX2                !
 ! D5    D(8,1,9,18)           -33.9041         estimate D2E/DX2                !
 ! D6    D(11,2,10,5)           -6.4124         estimate D2E/DX2                !
 ! D7    D(11,2,10,7)          174.9611         estimate D2E/DX2                !
 ! D8    D(10,2,11,9)         -117.2635         estimate D2E/DX2                !
 ! D9    D(10,2,11,19)           5.4493         estimate D2E/DX2                !
 ! D10   D(10,2,11,20)         126.3633         estimate D2E/DX2                !
 ! D11   D(13,4,12,9)          171.2841         estimate D2E/DX2                !
 ! D12   D(13,4,12,21)         -68.5952         estimate D2E/DX2                !
 ! D13   D(13,4,12,22)          52.5461         estimate D2E/DX2                !
 ! D14   D(12,4,13,23)         -60.3253         estimate D2E/DX2                !
 ! D15   D(12,4,13,24)          60.2787         estimate D2E/DX2                !
 ! D16   D(12,4,13,27)         179.9338         estimate D2E/DX2                !
 ! D17   D(14,6,8,1)           172.2538         estimate D2E/DX2                !
 ! D18   D(14,6,8,3)            -7.1964         estimate D2E/DX2                !
 ! D19   D(15,6,8,1)            54.5439         estimate D2E/DX2                !
 ! D20   D(15,6,8,3)          -124.9063         estimate D2E/DX2                !
 ! D21   D(25,6,8,1)           -66.8471         estimate D2E/DX2                !
 ! D22   D(25,6,8,3)           113.7028         estimate D2E/DX2                !
 ! D23   D(16,7,10,2)           99.5127         estimate D2E/DX2                !
 ! D24   D(16,7,10,5)          -78.9533         estimate D2E/DX2                !
 ! D25   D(17,7,10,2)          -17.6089         estimate D2E/DX2                !
 ! D26   D(17,7,10,5)          163.9251         estimate D2E/DX2                !
 ! D27   D(26,7,10,2)         -139.8354         estimate D2E/DX2                !
 ! D28   D(26,7,10,5)           41.6986         estimate D2E/DX2                !
 ! D29   D(1,9,11,2)            73.6384         estimate D2E/DX2                !
 ! D30   D(1,9,11,19)          -49.5414         estimate D2E/DX2                !
 ! D31   D(1,9,11,20)         -172.0075         estimate D2E/DX2                !
 ! D32   D(12,9,11,2)         -168.7725         estimate D2E/DX2                !
 ! D33   D(12,9,11,19)          68.0477         estimate D2E/DX2                !
 ! D34   D(12,9,11,20)         -54.4183         estimate D2E/DX2                !
 ! D35   D(18,9,11,2)          -45.931          estimate D2E/DX2                !
 ! D36   D(18,9,11,19)        -169.1108         estimate D2E/DX2                !
 ! D37   D(18,9,11,20)          68.4232         estimate D2E/DX2                !
 ! D38   D(1,9,12,4)          -179.7161         estimate D2E/DX2                !
 ! D39   D(1,9,12,21)           61.0047         estimate D2E/DX2                !
 ! D40   D(1,9,12,22)          -60.1269         estimate D2E/DX2                !
 ! D41   D(11,9,12,4)           64.2519         estimate D2E/DX2                !
 ! D42   D(11,9,12,21)         -55.0273         estimate D2E/DX2                !
 ! D43   D(11,9,12,22)        -176.1589         estimate D2E/DX2                !
 ! D44   D(18,9,12,4)          -58.8958         estimate D2E/DX2                !
 ! D45   D(18,9,12,21)        -178.175          estimate D2E/DX2                !
 ! D46   D(18,9,12,22)          60.6934         estimate D2E/DX2                !
 --------------------------------------------------------------------------------
 Trust Radius=3.00D-01 FncErr=1.00D-07 GrdErr=1.00D-06
 Number of steps in this run=    127 maximum allowed number of steps=    162.
 GradGradGradGradGradGradGradGradGradGradGradGradGradGradGradGradGradGrad

                          Input orientation:                          
 ---------------------------------------------------------------------
 Center     Atomic      Atomic             Coordinates (Angstroms)
 Number     Number       Type             X           Y           Z
 ---------------------------------------------------------------------
      1          8           0        5.610000    1.115000    0.193000
      2          8           0        5.196000   -1.742000    0.233000
      3          8           0        5.949000    2.101000   -1.789000
      4          8           0        8.964000   -0.228000   -0.147000
      5          8           0        4.131000   -1.441000    2.185000
      6          6           0        4.077000    2.857000   -0.383000
      7          6           0        2.924000   -2.458000    0.295000
      8          6           0        5.270000    2.035000   -0.764000
      9          6           0        6.625000    0.151000   -0.131000
     10          6           0        4.078000   -1.833000    1.019000
     11          6           0        6.346000   -1.068000    0.750000
     12          6           0        7.993000    0.756000    0.195000
     13          6           0       10.293000    0.289000   -0.076000
     14          1           0        3.957000    3.670000   -1.147000
     15          1           0        4.267000    3.331000    0.616000
     16          1           0        2.874000   -3.535000    0.607000
     17          1           0        3.107000   -2.428000   -0.811000
     18          1           0        6.568000   -0.121000   -1.220000
     19          1           0        6.207000   -0.768000    1.820000
     20          1           0        7.197000   -1.794000    0.642000
     21          1           0        8.073000    1.001000    1.287000
     22          1           0        8.142000    1.687000   -0.414000
     23          1           0       10.411000    1.146000   -0.789000
     24          1           0       10.513000    0.639000    0.967000
     25          1           0        3.183000    2.235000   -0.345000
     26          1           0        1.995000   -1.945000    0.543000
     27          1           0       10.997000   -0.498000   -0.344000
 ---------------------------------------------------------------------
                    Distance matrix (angstroms):
                    1          2          3          4          5
     1  O    0.000000
     2  O    2.887117   0.000000
     3  O    2.239518   4.407283   0.000000
     4  O    3.628852   4.078532   4.148570   0.000000
     5  O    3.562112   2.243910   5.625261   5.501589   0.000000
     6  C    2.390905   4.773093   2.460235   5.784089   5.007029
     7  C    4.471166   2.382957   5.854756   6.453671   2.462364
     8  C    1.370346   3.907072   1.231268   4.375785   4.698563
     9  C    1.436836   2.399580   2.647346   2.369561   3.757440
    10  C    3.423449   1.369672   5.182843   5.273384   1.231271
    11  C    2.370113   1.429708   4.080036   2.892081   2.665442
    12  C    2.409891   3.750288   3.150114   1.424100   4.868465
    13  C    4.762891   5.495439   5.008797   1.427785   6.787876
    14  H    3.325062   5.720950   2.615720   6.423741   6.103673
    15  H    2.625497   5.171563   3.182145   5.942260   5.025161
    16  H    5.411062   2.957433   6.852805   6.970858   2.907743
    17  H    4.452626   2.434020   5.435558   6.291689   3.316438
    18  H    2.107612   2.573176   2.375754   2.627469   4.390375
    19  H    2.559146   2.118812   4.617641   3.429539   2.212675
    20  H    3.344017   2.043034   4.757971   2.489411   3.450480
    21  H    2.697443   4.112432   3.896556   2.088224   4.723254
    22  H    2.665831   4.566789   2.621311   2.100999   5.712032
    23  H    4.900499   6.048244   4.671346   2.096151   7.414556
    24  H    4.986488   5.871832   5.528388   2.095730   6.822012
    25  H    2.726568   4.494750   3.123115   6.286934   4.562081
    26  H    4.749139   3.222376   6.119024   7.210489   2.740926
    27  H    5.648885   5.960878   5.858765   2.060291   7.377469
                    6          7          8          9         10
     6  C    0.000000
     7  C    5.480722   0.000000
     8  C    1.498030   5.178054   0.000000
     9  C    3.725352   4.548160   2.405446   0.000000
    10  C    4.895069   1.498839   4.422825   3.427239   0.000000
    11  C    4.673080   3.721453   3.616432   1.529694   2.408612
    12  C    4.481444   6.002879   3.157570   1.530923   4.765409
    13  C    6.732572   7.873107   5.362125   3.671007   6.657938
    14  H    1.122081   6.379564   2.131639   4.531428   5.915167
    15  H    1.121952   5.951404   2.142434   4.028719   5.183148
    16  H    6.579132   1.122396   6.216539   5.310484   2.125127
    17  H    5.390298   1.121439   4.959753   4.414744   2.155404
    18  H    3.971666   4.586451   2.557553   1.123901   3.760873
    19  H    4.746655   3.994974   3.925791   2.196744   2.511666
    20  H    5.693578   4.338183   4.511253   2.169732   3.141944
    21  H    4.711863   6.281795   3.623888   2.197710   4.905446
    22  H    4.230140   6.701584   2.914102   2.177309   5.564170
    23  H    6.573577   8.379680   5.217358   3.969482   7.228430
    24  H    6.940037   8.224106   5.695105   4.069434   6.893672
    25  H    1.089754   4.743515   2.138020   4.029419   4.382938
    26  H    5.315205   1.089823   5.317356   5.126831   2.139628
    27  H    7.690510   8.332062   6.276226   4.425037   7.177225
                   11         12         13         14         15
    11  C    0.000000
    12  C    2.519446   0.000000
    13  C    4.254707   2.362526   0.000000
    14  H    5.635120   5.155740   7.261067   0.000000
    15  H    4.867381   4.548730   6.785669   1.821864   0.000000
    16  H    4.261610   6.692278   8.374427   7.494093   7.005889
    17  H    3.844144   5.918014   7.717572   6.166117   6.045495
    18  H    2.197042   2.191342   3.918222   4.603730   4.536717
    19  H    1.119920   2.855345   4.626820   5.793223   4.692016
    20  H    1.123806   2.708491   3.799951   6.599501   5.903491
    21  H    2.748028   1.122002   2.700576   5.476255   4.512735
    22  H    3.488630   1.122427   2.587557   4.688689   4.333504
    23  H    4.877965   2.639523   1.121045   6.939226   6.670606
    24  H    4.508306   2.638195   1.121940   7.525762   6.810476
    25  H    4.702489   5.061140   7.376407   1.817004   1.816533
    26  H    4.443330   6.587299   8.615725   6.183346   5.744866
    27  H    4.811812   3.299553   1.089408   8.220622   7.802291
                   16         17         18         19         20
    16  H    0.000000
    17  H    1.813963   0.000000
    18  H    5.351538   4.179480   0.000000
    19  H    4.498505   4.391783   3.128982   0.000000
    20  H    4.660540   4.386487   2.581010   1.849449   0.000000
    21  H    6.933058   6.389116   3.131926   2.625911   2.999238
    22  H    7.487560   6.514757   2.529027   3.842136   3.758394
    23  H    8.981478   8.131567   4.069361   5.305082   4.584884
    24  H    8.712416   8.210762   4.574232   4.609652   4.125648
    25  H    5.856166   4.686843   4.215992   4.780147   5.772279
    26  H    1.817921   1.817457   5.229481   4.555985   5.205133
    27  H    8.724156   8.136036   4.530513   5.263069   4.134224
                   21         22         23         24         25
    21  H    0.000000
    22  H    1.835418   0.000000
    23  H    3.130023   2.362555   0.000000
    24  H    2.487377   2.937194   1.830571   0.000000
    25  H    5.300781   4.989664   7.323049   7.615606   0.000000
    26  H    6.795185   7.203671   9.064081   8.911406   4.435345
    27  H    3.668370   3.595852   1.801154   1.801595   8.278157
                   26         27
    26  H    0.000000
    27  H    9.160599   0.000000
 Stoichiometry    C8H14O5
 Framework group  C1[X(C8H14O5)]
 Deg. of freedom    75
 Full point group                 C1      NOp   1
 Largest Abelian subgroup         C1      NOp   1
 Largest concise Abelian subgroup C1      NOp   1
                         Standard orientation:                         
 ---------------------------------------------------------------------
 Center     Atomic      Atomic             Coordinates (Angstroms)
 Number     Number       Type             X           Y           Z
 ---------------------------------------------------------------------
      1          8           0        0.051363    1.037207    0.453534
      2          8           0       -1.447990   -1.199731   -0.587378
      3          8           0        1.107932    2.366128   -1.006970
      4          8           0        2.611826   -1.429780   -0.272115
      5          8           0       -2.649589   -1.123016    1.306138
      6          6           0       -0.542535    3.351972    0.528227
      7          6           0       -3.788079   -0.840946   -0.858929
      8          6           0        0.281258    2.269704   -0.099591
      9          6           0        0.648584   -0.106194   -0.179284
     10          6           0       -2.636234   -1.049691    0.077124
     11          6           0       -0.242459   -1.298061    0.174916
     12          6           0        2.058791   -0.294428    0.386057
     13          6           0        3.999354   -1.592052    0.022853
     14          1           0       -0.191727    4.336564    0.120089
     15          1           0       -0.369528    3.342885    1.636723
     16          1           0       -4.312323   -1.826798   -0.973112
     17          1           0       -3.407757   -0.534200   -1.868329
     18          1           0        0.691149    0.044676   -1.292199
     19          1           0       -0.447264   -1.334548    1.275345
     20          1           0        0.260345   -2.240900   -0.173197
     21          1           0        2.025837   -0.478914    1.492297
     22          1           0        2.669788    0.622707    0.173011
     23          1           0        4.572571   -0.689860   -0.315102
     24          1           0        4.142752   -1.732719    1.126664
     25          1           0       -1.599073    3.202558    0.306940
     26          1           0       -4.470381   -0.089190   -0.462646
     27          1           0        4.375198   -2.470553   -0.500394
 ---------------------------------------------------------------------
 Rotational constants (GHZ):      0.8474863      0.5104392      0.3557113
 Standard basis: 6-311++G (5D, 7F)
 There are   277 symmetry adapted cartesian basis functions of A   symmetry.
 There are   277 symmetry adapted basis functions of A   symmetry.
   277 basis functions,   474 primitive gaussians,   277 cartesian basis functions
    51 alpha electrons       51 beta electrons
       nuclear repulsion energy       850.4644201076 Hartrees.
 NAtoms=   27 NActive=   27 NUniq=   27 SFac= 1.00D+00 NAtFMM=   60 NAOKFM=F Big=F
 Integral buffers will be    131072 words long.
 Raffenetti 2 integral format.
 Two-electron integral symmetry is turned on.
 One-electron integrals computed using PRISM.
 NBasis=   277 RedAO= T EigKep=  7.91D-06  NBF=   277
 NBsUse=   277 1.00D-06 EigRej= -1.00D+00 NBFU=   277
 ExpMin= 3.60D-02 ExpMax= 8.59D+03 ExpMxC= 1.30D+03 IAcc=3 IRadAn=         5 AccDes= 0.00D+00
 Harris functional with IExCor=  402 and IRadAn=       5 diagonalized for initial guess.
 HarFok:  IExCor=  402 AccDes= 0.00D+00 IRadAn=         5 IDoV= 1 UseB2=F ITyADJ=14
 ICtDFT=  3500011 ScaDFX=  1.000000  1.000000  1.000000  1.000000
 FoFCou: FMM=F IPFlag=           0 FMFlag=      100000 FMFlg1=           0
         NFxFlg=           0 DoJE=T BraDBF=F KetDBF=T FulRan=T
         wScrn=  0.000000 ICntrl=     500 IOpCl=  0 I1Cent=   200000004 NGrid=           0
         NMat0=    1 NMatS0=      1 NMatT0=    0 NMatD0=    1 NMtDS0=    0 NMtDT0=    0
 Petite list used in FoFCou.
 Requested convergence on RMS density matrix=1.00D-08 within 128 cycles.
 Requested convergence on MAX density matrix=1.00D-06.
 Requested convergence on             energy=1.00D-06.
 No special actions if energy rises.
 SCF Done:  E(RB3LYP) =  -689.376922595     A.U. after   14 cycles
            NFock= 14  Conv=0.49D-08     -V/T= 2.0035

 **********************************************************************

            Population analysis using the SCF density.

 **********************************************************************

 Orbital symmetries:
       Occupied  (A) (A) (A) (A) (A) (A) (A) (A) (A) (A) (A) (A)
                 (A) (A) (A) (A) (A) (A) (A) (A) (A) (A) (A) (A)
                 (A) (A) (A) (A) (A) (A) (A) (A) (A) (A) (A) (A)
                 (A) (A) (A) (A) (A) (A) (A) (A) (A) (A) (A) (A)
                 (A) (A) (A)
       Virtual   (A) (A) (A) (A) (A) (A) (A) (A) (A) (A) (A) (A)
                 (A) (A) (A) (A) (A) (A) (A) (A) (A) (A) (A) (A)
                 (A) (A) (A) (A) (A) (A) (A) (A) (A) (A) (A) (A)
                 (A) (A) (A) (A) (A) (A) (A) (A) (A) (A) (A) (A)
                 (A) (A) (A) (A) (A) (A) (A) (A) (A) (A) (A) (A)
                 (A) (A) (A) (A) (A) (A) (A) (A) (A) (A) (A) (A)
                 (A) (A) (A) (A) (A) (A) (A) (A) (A) (A) (A) (A)
                 (A) (A) (A) (A) (A) (A) (A) (A) (A) (A) (A) (A)
                 (A) (A) (A) (A) (A) (A) (A) (A) (A) (A) (A) (A)
                 (A) (A) (A) (A) (A) (A) (A) (A) (A) (A) (A) (A)
                 (A) (A) (A) (A) (A) (A) (A) (A) (A) (A) (A) (A)
                 (A) (A) (A) (A) (A) (A) (A) (A) (A) (A) (A) (A)
                 (A) (A) (A) (A) (A) (A) (A) (A) (A) (A) (A) (A)
                 (A) (A) (A) (A) (A) (A) (A) (A) (A) (A) (A) (A)
                 (A) (A) (A) (A) (A) (A) (A) (A) (A) (A) (A) (A)
                 (A) (A) (A) (A) (A) (A) (A) (A) (A) (A) (A) (A)
                 (A) (A) (A) (A) (A) (A) (A) (A) (A) (A) (A) (A)
                 (A) (A) (A) (A) (A) (A) (A) (A) (A) (A) (A) (A)
                 (A) (A) (A) (A) (A) (A) (A) (A) (A) (A)
 The electronic state is 1-A.
 Alpha  occ. eigenvalues --  -19.18085 -19.17484 -19.14422 -19.13410 -19.12522
 Alpha  occ. eigenvalues --  -10.33428 -10.32759 -10.25560 -10.24229 -10.24057
 Alpha  occ. eigenvalues --  -10.23233 -10.20495 -10.20082  -1.13666  -1.12538
 Alpha  occ. eigenvalues --   -1.06044  -1.04303  -1.03284  -0.82423  -0.78088
 Alpha  occ. eigenvalues --   -0.76349  -0.72301  -0.67922  -0.63787  -0.57998
 Alpha  occ. eigenvalues --   -0.57911  -0.51814  -0.51150  -0.50607  -0.49906
 Alpha  occ. eigenvalues --   -0.48864  -0.48803  -0.47767  -0.47122  -0.46365
 Alpha  occ. eigenvalues --   -0.44134  -0.42898  -0.42555  -0.41754  -0.41360
 Alpha  occ. eigenvalues --   -0.40027  -0.38243  -0.38066  -0.36576  -0.34693
 Alpha  occ. eigenvalues --   -0.33879  -0.31973  -0.30286  -0.29099  -0.28653
 Alpha  occ. eigenvalues --   -0.27413
 Alpha virt. eigenvalues --   -0.02731  -0.01930  -0.01427  -0.00784   0.00057
 Alpha virt. eigenvalues --    0.01409   0.02016   0.02240   0.02918   0.03336
 Alpha virt. eigenvalues --    0.03553   0.04040   0.04763   0.04992   0.05393
 Alpha virt. eigenvalues --    0.05705   0.06615   0.06976   0.07463   0.08589
 Alpha virt. eigenvalues --    0.08922   0.09270   0.09474   0.10066   0.10577
 Alpha virt. eigenvalues --    0.10824   0.11260   0.11653   0.11824   0.12348
 Alpha virt. eigenvalues --    0.12719   0.12988   0.13179   0.13514   0.13672
 Alpha virt. eigenvalues --    0.14032   0.14452   0.14722   0.14934   0.15400
 Alpha virt. eigenvalues --    0.15614   0.15906   0.16221   0.16981   0.17365
 Alpha virt. eigenvalues --    0.17849   0.18017   0.18421   0.19045   0.19247
 Alpha virt. eigenvalues --    0.19536   0.20486   0.21001   0.21109   0.21514
 Alpha virt. eigenvalues --    0.21836   0.22699   0.23212   0.23449   0.24312
 Alpha virt. eigenvalues --    0.24784   0.25723   0.26564   0.27004   0.28009
 Alpha virt. eigenvalues --    0.28453   0.28657   0.29874   0.30475   0.30999
 Alpha virt. eigenvalues --    0.31479   0.31704   0.32297   0.32908   0.33302
 Alpha virt. eigenvalues --    0.33499   0.33809   0.34936   0.35449   0.35631
 Alpha virt. eigenvalues --    0.36240   0.36846   0.37282   0.38241   0.39359
 Alpha virt. eigenvalues --    0.39858   0.40522   0.41284   0.42156   0.43641
 Alpha virt. eigenvalues --    0.44661   0.45397   0.45730   0.46433   0.47017
 Alpha virt. eigenvalues --    0.49307   0.50184   0.50739   0.52553   0.53528
 Alpha virt. eigenvalues --    0.53900   0.55961   0.56557   0.59272   0.59942
 Alpha virt. eigenvalues --    0.60437   0.61201   0.61831   0.62777   0.63585
 Alpha virt. eigenvalues --    0.63707   0.64712   0.65403   0.65895   0.66086
 Alpha virt. eigenvalues --    0.67076   0.67703   0.68253   0.69518   0.70330
 Alpha virt. eigenvalues --    0.71067   0.71632   0.72166   0.73030   0.73794
 Alpha virt. eigenvalues --    0.74544   0.75663   0.76747   0.78262   0.81237
 Alpha virt. eigenvalues --    0.83561   0.84606   0.91174   0.93492   0.95300
 Alpha virt. eigenvalues --    1.01734   1.05525   1.07454   1.10854   1.12802
 Alpha virt. eigenvalues --    1.14435   1.16276   1.18596   1.20377   1.21013
 Alpha virt. eigenvalues --    1.21654   1.23760   1.26402   1.27090   1.27603
 Alpha virt. eigenvalues --    1.29914   1.30738   1.33492   1.39256   1.41507
 Alpha virt. eigenvalues --    1.64581   1.66551   1.69302   1.73699   1.75441
 Alpha virt. eigenvalues --    2.34376   2.34925   2.35785   2.36937   2.37928
 Alpha virt. eigenvalues --    2.39952   2.43931   2.46801   2.50883   2.51773
 Alpha virt. eigenvalues --    2.52115   2.53595   2.55093   2.59528   2.68118
 Alpha virt. eigenvalues --    2.70821   2.85848   2.87502   2.89952   2.90355
 Alpha virt. eigenvalues --    2.91282   2.92258   2.96050   2.96581   2.98030
 Alpha virt. eigenvalues --    2.98550   3.00134   3.01570   3.02810   3.04792
 Alpha virt. eigenvalues --    3.05739   3.07439   3.09155   3.10235   3.11377
 Alpha virt. eigenvalues --    3.13821   3.21252   3.24275   5.00696   5.03030
 Alpha virt. eigenvalues --    5.03530   5.06064   5.06642   5.07254   5.09105
 Alpha virt. eigenvalues --    5.10033   5.14157   5.15768   5.16596   5.20037
 Alpha virt. eigenvalues --    5.21577   5.24981   5.25318  23.39527  23.41237
 Alpha virt. eigenvalues --   23.43207  23.48188  23.52127  23.53831  23.56233
 Alpha virt. eigenvalues --   23.60740  49.85167  49.87151  49.88565  49.90158
 Alpha virt. eigenvalues --   49.91238
          Condensed to atoms (all electrons):
               1          2          3          4          5          6
     1  O    9.493954  -0.004566  -0.267610  -0.002874   0.005705  -0.708481
     2  O   -0.004566   9.310974   0.004170  -0.004390  -0.254150   0.004969
     3  O   -0.267610   0.004170   8.263534  -0.001171  -0.000085   0.152186
     4  O   -0.002874  -0.004390  -0.001171   8.533000  -0.000126  -0.000873
     5  O    0.005705  -0.254150  -0.000085  -0.000126   8.324020  -0.002886
     6  C   -0.708481   0.004969   0.152186  -0.000873  -0.002886   8.517125
     7  C    0.024128  -0.604703   0.000036   0.003654   0.055417  -0.022921
     8  C   -0.164448   0.025656   0.153364   0.004498  -0.004328  -1.764599
     9  C    0.292696  -0.221885   0.097637  -0.044638  -0.172969  -0.015312
    10  C    0.031612  -0.245377  -0.006346   0.010987   0.166720   0.029587
    11  C   -0.746608  -0.007229   0.095356   0.094526   0.150559   0.105497
    12  C    0.065821   0.142424  -0.186704  -0.109256   0.032857  -0.176696
    13  C   -0.013505   0.001778  -0.006851  -0.129937   0.000353   0.008114
    14  H    0.015304   0.000011  -0.001532  -0.000068  -0.000011   0.410434
    15  H    0.036864  -0.000243  -0.004092   0.000184   0.000685   0.250211
    16  H    0.001821  -0.020597  -0.000076  -0.000034  -0.008923  -0.000491
    17  H   -0.002856   0.015415   0.000241   0.000046   0.004698   0.005390
    18  H    0.003156  -0.013022  -0.003132  -0.012039  -0.005249  -0.057474
    19  H   -0.034881  -0.025000  -0.000584  -0.001405   0.011136   0.012105
    20  H    0.038251  -0.100305  -0.000510   0.019288   0.012863   0.002418
    21  H    0.030948  -0.008306   0.001145  -0.081821  -0.000673  -0.012719
    22  H   -0.061393   0.007726   0.010245  -0.043233  -0.000343   0.027849
    23  H    0.002544  -0.000121  -0.001450  -0.048965   0.000001  -0.001565
    24  H   -0.001438  -0.000113   0.000397  -0.071386  -0.000014  -0.000204
    25  H   -0.007718  -0.000927  -0.006862  -0.000042  -0.000632   0.332781
    26  H   -0.003070   0.012904   0.000114   0.000081   0.004691   0.001349
    27  H   -0.001039   0.000488  -0.000387  -0.035286   0.000002   0.000595
               7          8          9         10         11         12
     1  O    0.024128  -0.164448   0.292696   0.031612  -0.746608   0.065821
     2  O   -0.604703   0.025656  -0.221885  -0.245377  -0.007229   0.142424
     3  O    0.000036   0.153364   0.097637  -0.006346   0.095356  -0.186704
     4  O    0.003654   0.004498  -0.044638   0.010987   0.094526  -0.109256
     5  O    0.055417  -0.004328  -0.172969   0.166720   0.150559   0.032857
     6  C   -0.022921  -1.764599  -0.015312   0.029587   0.105497  -0.176696
     7  C    8.024873  -0.018603  -0.196337  -1.427443   0.039972  -0.009503
     8  C   -0.018603   7.667644  -1.025330  -0.051274   0.124227   0.567270
     9  C   -0.196337  -1.025330  22.575753   0.440283  -9.145389  -6.147358
    10  C   -1.427443  -0.051274   0.440283   7.382634  -0.437692  -0.255404
    11  C    0.039972   0.124227  -9.145389  -0.437692  16.125750  -0.130929
    12  C   -0.009503   0.567270  -6.147358  -0.255404  -0.130929  12.335430
    13  C    0.002521   0.005938  -0.524805   0.000633   0.255996  -0.104718
    14  H    0.001269  -0.082570   0.001797  -0.001834  -0.001148  -0.006723
    15  H    0.000033   0.028717  -0.015953   0.001016   0.002209   0.017430
    16  H    0.332707   0.000131   0.004073   0.007874  -0.016039   0.002121
    17  H    0.362325  -0.005388   0.011966  -0.059300   0.008056  -0.008384
    18  H   -0.023537  -0.013618   0.670468   0.003611  -0.282847  -0.097068
    19  H   -0.012037   0.024389  -0.029044   0.003057   0.285252   0.005739
    20  H    0.033192   0.003759  -0.034837   0.048574   0.157593   0.062866
    21  H   -0.003574   0.039042   0.109294   0.002544  -0.313625   0.432987
    22  H    0.002872  -0.037495  -0.166282  -0.001494   0.307479   0.136521
    23  H    0.000056  -0.003342   0.025588   0.000864   0.011731  -0.058790
    24  H   -0.000302  -0.000631   0.010280  -0.001171  -0.024580   0.011607
    25  H    0.001467  -0.007292   0.001504  -0.001312  -0.011475   0.001057
    26  H    0.373348  -0.001609  -0.009257  -0.064767   0.010981   0.000678
    27  H    0.000125   0.002484  -0.048705  -0.001066   0.017199   0.034486
              13         14         15         16         17         18
     1  O   -0.013505   0.015304   0.036864   0.001821  -0.002856   0.003156
     2  O    0.001778   0.000011  -0.000243  -0.020597   0.015415  -0.013022
     3  O   -0.006851  -0.001532  -0.004092  -0.000076   0.000241  -0.003132
     4  O   -0.129937  -0.000068   0.000184  -0.000034   0.000046  -0.012039
     5  O    0.000353  -0.000011   0.000685  -0.008923   0.004698  -0.005249
     6  C    0.008114   0.410434   0.250211  -0.000491   0.005390  -0.057474
     7  C    0.002521   0.001269   0.000033   0.332707   0.362325  -0.023537
     8  C    0.005938  -0.082570   0.028717   0.000131  -0.005388  -0.013618
     9  C   -0.524805   0.001797  -0.015953   0.004073   0.011966   0.670468
    10  C    0.000633  -0.001834   0.001016   0.007874  -0.059300   0.003611
    11  C    0.255996  -0.001148   0.002209  -0.016039   0.008056  -0.282847
    12  C   -0.104718  -0.006723   0.017430   0.002121  -0.008384  -0.097068
    13  C    5.851207  -0.000044  -0.000204  -0.000088  -0.000030  -0.018367
    14  H   -0.000044   0.450779  -0.021960  -0.000005   0.000105   0.000475
    15  H   -0.000204  -0.021960   0.485189   0.000073  -0.000291   0.000265
    16  H   -0.000088  -0.000005   0.000073   0.470888  -0.030370  -0.000604
    17  H   -0.000030   0.000105  -0.000291  -0.030370   0.472950  -0.001535
    18  H   -0.018367   0.000475   0.000265  -0.000604  -0.001535   0.449082
    19  H    0.008679  -0.000153  -0.001193  -0.002146   0.000503  -0.005300
    20  H   -0.012133   0.000159   0.000612   0.005033  -0.000974  -0.020313
    21  H   -0.028091  -0.000189  -0.001317   0.000433  -0.000339   0.017783
    22  H    0.036836  -0.000361  -0.002855  -0.000267   0.000421  -0.037000
    23  H    0.391758  -0.000062   0.000288   0.000007  -0.000004  -0.005038
    24  H    0.372940  -0.000003  -0.000119  -0.000005  -0.000008   0.006422
    25  H    0.000265  -0.022801  -0.040924  -0.000030  -0.000063   0.000110
    26  H    0.000088  -0.000111   0.000439  -0.028729  -0.025470   0.000277
    27  H    0.376054  -0.000016  -0.000020  -0.000018   0.000021  -0.002845
              19         20         21         22         23         24
     1  O   -0.034881   0.038251   0.030948  -0.061393   0.002544  -0.001438
     2  O   -0.025000  -0.100305  -0.008306   0.007726  -0.000121  -0.000113
     3  O   -0.000584  -0.000510   0.001145   0.010245  -0.001450   0.000397
     4  O   -0.001405   0.019288  -0.081821  -0.043233  -0.048965  -0.071386
     5  O    0.011136   0.012863  -0.000673  -0.000343   0.000001  -0.000014
     6  C    0.012105   0.002418  -0.012719   0.027849  -0.001565  -0.000204
     7  C   -0.012037   0.033192  -0.003574   0.002872   0.000056  -0.000302
     8  C    0.024389   0.003759   0.039042  -0.037495  -0.003342  -0.000631
     9  C   -0.029044  -0.034837   0.109294  -0.166282   0.025588   0.010280
    10  C    0.003057   0.048574   0.002544  -0.001494   0.000864  -0.001171
    11  C    0.285252   0.157593  -0.313625   0.307479   0.011731  -0.024580
    12  C    0.005739   0.062866   0.432987   0.136521  -0.058790   0.011607
    13  C    0.008679  -0.012133  -0.028091   0.036836   0.391758   0.372940
    14  H   -0.000153   0.000159  -0.000189  -0.000361  -0.000062  -0.000003
    15  H   -0.001193   0.000612  -0.001317  -0.002855   0.000288  -0.000119
    16  H   -0.002146   0.005033   0.000433  -0.000267   0.000007  -0.000005
    17  H    0.000503  -0.000974  -0.000339   0.000421  -0.000004  -0.000008
    18  H   -0.005300  -0.020313   0.017783  -0.037000  -0.005038   0.006422
    19  H    0.445365  -0.039467   0.000382   0.002665  -0.000659  -0.000915
    20  H   -0.039467   0.505672   0.014285  -0.010965   0.001973  -0.002241
    21  H    0.000382   0.014285   0.627469  -0.122871  -0.017123   0.032289
    22  H    0.002665  -0.010965  -0.122871   0.629882   0.032719  -0.021978
    23  H   -0.000659   0.001973  -0.017123   0.032719   0.566239  -0.084434
    24  H   -0.000915  -0.002241   0.032289  -0.021978  -0.084434   0.584518
    25  H    0.000586  -0.000480   0.000959  -0.000130  -0.000049   0.000004
    26  H    0.001432  -0.002037  -0.000437   0.000057   0.000003   0.000010
    27  H    0.001581  -0.004319   0.000825   0.002584  -0.020959  -0.020378
              25         26         27
     1  O   -0.007718  -0.003070  -0.001039
     2  O   -0.000927   0.012904   0.000488
     3  O   -0.006862   0.000114  -0.000387
     4  O   -0.000042   0.000081  -0.035286
     5  O   -0.000632   0.004691   0.000002
     6  C    0.332781   0.001349   0.000595
     7  C    0.001467   0.373348   0.000125
     8  C   -0.007292  -0.001609   0.002484
     9  C    0.001504  -0.009257  -0.048705
    10  C   -0.001312  -0.064767  -0.001066
    11  C   -0.011475   0.010981   0.017199
    12  C    0.001057   0.000678   0.034486
    13  C    0.000265   0.000088   0.376054
    14  H   -0.022801  -0.000111  -0.000016
    15  H   -0.040924   0.000439  -0.000020
    16  H   -0.000030  -0.028729  -0.000018
    17  H   -0.000063  -0.025470   0.000021
    18  H    0.000110   0.000277  -0.002845
    19  H    0.000586   0.001432   0.001581
    20  H   -0.000480  -0.002037  -0.004319
    21  H    0.000959  -0.000437   0.000825
    22  H   -0.000130   0.000057   0.002584
    23  H   -0.000049   0.000003  -0.020959
    24  H    0.000004   0.000010  -0.020378
    25  H    0.479584  -0.001660   0.000032
    26  H   -0.001660   0.476142   0.000004
    27  H    0.000032   0.000004   0.471853
 Mulliken charges:
               1
     1  O   -0.022316
     2  O   -0.015577
     3  O   -0.291033
     4  O   -0.078720
     5  O   -0.319318
     6  C   -1.096388
     7  C   -0.939033
     8  C    0.533409
     9  C   -0.443239
    10  C    0.424482
    11  C   -0.674823
    12  C   -0.557762
    13  C   -0.474388
    14  H    0.259259
    15  H    0.264957
    16  H    0.283262
    17  H    0.252875
    18  H    0.447338
    19  H    0.349914
    20  H    0.322042
    21  H    0.280699
    22  H    0.308810
    23  H    0.208790
    24  H    0.211455
    25  H    0.284048
    26  H    0.254550
    27  H    0.226707
 Sum of Mulliken charges =   0.00000
 Mulliken charges with hydrogens summed into heavy atoms:
               1
     1  O   -0.022316
     2  O   -0.015577
     3  O   -0.291033
     4  O   -0.078720
     5  O   -0.319318
     6  C   -0.288125
     7  C   -0.148346
     8  C    0.533409
     9  C    0.004100
    10  C    0.424482
    11  C   -0.002867
    12  C    0.031747
    13  C    0.172565
 Electronic spatial extent (au):  <R**2>=           3206.2845
 Charge=              0.0000 electrons
 Dipole moment (field-independent basis, Debye):
    X=              0.3202    Y=              0.6051    Z=              0.2623  Tot=              0.7331
 Quadrupole moment (field-independent basis, Debye-Ang):
   XX=            -67.9439   YY=            -75.9996   ZZ=            -86.1131
   XY=             -7.7934   XZ=             12.6073   YZ=              6.2086
 Traceless Quadrupole moment (field-independent basis, Debye-Ang):
   XX=              8.7416   YY=              0.6859   ZZ=             -9.4275
   XY=             -7.7934   XZ=             12.6073   YZ=              6.2086
 Octapole moment (field-independent basis, Debye-Ang**2):
  XXX=             14.6721  YYY=             11.5809  ZZZ=             -2.6830  XYY=            -14.0309
  XXY=            -18.3385  XXZ=            -21.4935  XZZ=              8.6870  YZZ=             -0.0577
  YYZ=             14.7335  XYZ=             -3.9889
 Hexadecapole moment (field-independent basis, Debye-Ang**3):
 XXXX=          -2200.1236 YYYY=          -1336.5790 ZZZZ=           -305.5798 XXXY=            -60.0046
 XXXZ=             75.4338 YYYX=            -36.7574 YYYZ=             45.9452 ZZZX=             14.5433
 ZZZY=             10.7467 XXYY=           -626.8587 XXZZ=           -508.4588 YYZZ=           -306.9818
 XXYZ=             36.7378 YYXZ=             23.2155 ZZXY=            -20.6455
 N-N= 8.504644201076D+02 E-N=-3.315432450156D+03  KE= 6.869655136948D+02
 Calling FoFJK, ICntrl=      2127 FMM=F ISym2X=0 I1Cent= 0 IOpClX= 0 NMat=1 NMatS=1 NMatT=0.
 ***** Axes restored to original set *****
 -------------------------------------------------------------------
 Center     Atomic                   Forces (Hartrees/Bohr)
 Number     Number              X              Y              Z
 -------------------------------------------------------------------
      1        8          -0.021152769    0.007729549    0.011217285
      2        8          -0.014829764   -0.008637166   -0.015480672
      3        8          -0.006394707    0.011224522   -0.011650934
      4        8           0.003535089   -0.010792218   -0.004908383
      5        8          -0.017249307   -0.002977823    0.007585981
      6        6           0.009927016    0.024357600   -0.002575449
      7        6           0.008179782   -0.014696875   -0.012796483
      8        6           0.006650228   -0.003911276   -0.001329529
      9        6           0.016054949   -0.019722342   -0.006248214
     10        6           0.007089594    0.005558119    0.004832640
     11        6           0.035338744   -0.000928935    0.008110684
     12        6          -0.009015410    0.017551560    0.002466426
     13        6           0.017596117    0.017583903    0.004927323
     14        1          -0.000352241   -0.015435354    0.014140834
     15        1          -0.007131184   -0.009583351   -0.015344288
     16        1          -0.003885086    0.016989056   -0.005159048
     17        1          -0.004600404   -0.000664090    0.020159676
     18        1           0.001941905    0.005874199    0.020394143
     19        1           0.000861351   -0.006596824   -0.019064125
     20        1          -0.014006151    0.015756016    0.004668546
     21        1          -0.003307999   -0.000501020   -0.013932133
     22        1          -0.002196818   -0.012766480    0.010207976
     23        1           0.000414369   -0.010382158    0.010284391
     24        1          -0.000499508   -0.003225591   -0.014269257
     25        1          -0.000124022    0.001830943    0.002473841
     26        1           0.000919951   -0.003377781    0.001101088
     27        1          -0.003763726   -0.000256182    0.000187684
 -------------------------------------------------------------------
 Cartesian Forces:  Max     0.035338744 RMS     0.011212314

 GradGradGradGradGradGradGradGradGradGradGradGradGradGradGradGradGradGrad
 Berny optimization.
 FormGI is forming the generalized inverse of G from B-inverse, IUseBI=4.
 Internal  Forces:  Max     0.025413352 RMS     0.008654051
 Search for a local minimum.
 Step number   1 out of a maximum of  127
 All quantities printed in internal units (Hartrees-Bohrs-Radians)
 Mixed Optimization -- RFO/linear search
 Second derivative matrix not updated -- first step.
 ITU=  0
     Eigenvalues ---    0.00357   0.00373   0.00781   0.00792   0.01060
     Eigenvalues ---    0.01064   0.01205   0.01299   0.01324   0.01373
     Eigenvalues ---    0.02084   0.02093   0.04337   0.05247   0.05283
     Eigenvalues ---    0.05511   0.05860   0.05931   0.07209   0.07364
     Eigenvalues ---    0.07452   0.07778   0.07783   0.10252   0.10365
     Eigenvalues ---    0.10992   0.11209   0.13498   0.13624   0.16000
     Eigenvalues ---    0.16000   0.16000   0.16000   0.16000   0.16000
     Eigenvalues ---    0.16000   0.16000   0.16000   0.16041   0.19221
     Eigenvalues ---    0.22018   0.22108   0.24995   0.24999   0.25000
     Eigenvalues ---    0.25000   0.25000   0.25000   0.25000   0.29338
     Eigenvalues ---    0.29452   0.31171   0.31181   0.31319   0.31322
     Eigenvalues ---    0.31354   0.31362   0.31367   0.31368   0.31418
     Eigenvalues ---    0.31458   0.31572   0.32499   0.32585   0.34833
     Eigenvalues ---    0.34841   0.34881   0.40023   0.41031   0.41309
     Eigenvalues ---    0.41849   0.50910   0.51040   0.90559   0.90560
 RFO step:  Lambda=-2.74521796D-02 EMin= 3.56896432D-03
 Linear search not attempted -- first point.
 Iteration  1 RMS(Cart)=  0.09208869 RMS(Int)=  0.00291952
 Iteration  2 RMS(Cart)=  0.00380432 RMS(Int)=  0.00017498
 Iteration  3 RMS(Cart)=  0.00000799 RMS(Int)=  0.00017486
 Iteration  4 RMS(Cart)=  0.00000000 RMS(Int)=  0.00017486
 Variable       Old X    -DE/DX   Delta X   Delta X   Delta X     New X
                                 (Linear)    (Quad)   (Total)
    R1        2.58958   0.01504   0.00000   0.02803   0.02803   2.61760
    R2        2.71523   0.02331   0.00000   0.05450   0.05450   2.76972
    R3        2.58830   0.01676   0.00000   0.03117   0.03117   2.61947
    R4        2.70176   0.02318   0.00000   0.05296   0.05296   2.75471
    R5        2.32676   0.00677   0.00000   0.00726   0.00726   2.33402
    R6        2.69116   0.01757   0.00000   0.03940   0.03940   2.73056
    R7        2.69812   0.01420   0.00000   0.03224   0.03224   2.73036
    R8        2.32677   0.00550   0.00000   0.00589   0.00589   2.33266
    R9        2.83087  -0.00154   0.00000  -0.00435  -0.00435   2.82652
   R10        2.12043  -0.02077   0.00000  -0.06092  -0.06092   2.05950
   R11        2.12018  -0.01892   0.00000  -0.05547  -0.05547   2.06471
   R12        2.05934  -0.00085   0.00000  -0.00227  -0.00227   2.05706
   R13        2.83239  -0.00135   0.00000  -0.00383  -0.00383   2.82856
   R14        2.12102  -0.01756   0.00000  -0.05154  -0.05154   2.06948
   R15        2.11921  -0.02065   0.00000  -0.06046  -0.06046   2.05875
   R16        2.05947  -0.00213   0.00000  -0.00566  -0.00566   2.05381
   R17        2.89070  -0.00340   0.00000  -0.01056  -0.01056   2.88014
   R18        2.89303   0.00030   0.00000   0.00092   0.00092   2.89395
   R19        2.12387  -0.02128   0.00000  -0.06274  -0.06274   2.06112
   R20        2.11634  -0.02009   0.00000  -0.05853  -0.05853   2.05781
   R21        2.12369  -0.02123   0.00000  -0.06259  -0.06259   2.06110
   R22        2.12028  -0.01391   0.00000  -0.04077  -0.04077   2.07950
   R23        2.12108  -0.01642   0.00000  -0.04820  -0.04820   2.07288
   R24        2.11847  -0.01443   0.00000  -0.04219  -0.04219   2.07628
   R25        2.12016  -0.01437   0.00000  -0.04213  -0.04213   2.07803
   R26        2.05868  -0.00230   0.00000  -0.00610  -0.00610   2.05258
    A1        2.05807   0.01459   0.00000   0.05258   0.05258   2.11065
    A2        2.07187   0.01461   0.00000   0.05267   0.05267   2.12454
    A3        1.95252   0.01420   0.00000   0.05117   0.05117   2.00369
    A4        1.88554   0.00283   0.00000   0.01907   0.01884   1.90438
    A5        1.90014   0.00334   0.00000   0.01771   0.01752   1.91766
    A6        1.92730   0.00111   0.00000   0.00192   0.00191   1.92921
    A7        1.89470  -0.00040   0.00000   0.00641   0.00600   1.90070
    A8        1.92790  -0.00210   0.00000  -0.01130  -0.01135   1.91655
    A9        1.92732  -0.00457   0.00000  -0.03220  -0.03219   1.89513
   A10        1.87564   0.00522   0.00000   0.02739   0.02725   1.90289
   A11        1.91728   0.00162   0.00000   0.01197   0.01179   1.92908
   A12        1.92848  -0.00041   0.00000  -0.00513  -0.00510   1.92338
   A13        1.88293  -0.00133   0.00000  -0.00064  -0.00099   1.88193
   A14        1.92885  -0.00450   0.00000  -0.03097  -0.03091   1.89794
   A15        1.92937  -0.00046   0.00000  -0.00166  -0.00166   1.92771
   A16        2.07206   0.02368   0.00000   0.08538   0.08536   2.15741
   A17        1.96965  -0.01021   0.00000  -0.03677  -0.03679   1.93287
   A18        2.24144  -0.01347   0.00000  -0.04852  -0.04854   2.19290
   A19        1.85036  -0.00040   0.00000   0.00748   0.00708   1.85744
   A20        1.89450   0.00171   0.00000   0.01823   0.01798   1.91248
   A21        1.92308  -0.00079   0.00000  -0.01311  -0.01301   1.91007
   A22        1.93399   0.00230   0.00000   0.01657   0.01634   1.95033
   A23        1.93471  -0.00083   0.00000  -0.01099  -0.01091   1.92381
   A24        1.92548  -0.00187   0.00000  -0.01670  -0.01657   1.90891
   A25        2.07962   0.02541   0.00000   0.09149   0.09142   2.17104
   A26        1.95947  -0.00833   0.00000  -0.03012  -0.03017   1.92930
   A27        2.24379  -0.01711   0.00000  -0.06178  -0.06181   2.18199
   A28        1.89032   0.00461   0.00000   0.02080   0.02066   1.91098
   A29        1.95190  -0.00444   0.00000  -0.03055  -0.03044   1.92146
   A30        1.84398   0.00214   0.00000   0.02897   0.02881   1.87279
   A31        1.93845   0.00034   0.00000  -0.00199  -0.00194   1.93651
   A32        1.89795  -0.00193   0.00000  -0.00421  -0.00459   1.89335
   A33        1.93784  -0.00050   0.00000  -0.01052  -0.01043   1.92741
   A34        1.85988   0.00456   0.00000   0.02240   0.02237   1.88225
   A35        1.91346   0.00075   0.00000   0.01332   0.01343   1.92689
   A36        1.93083  -0.00141   0.00000  -0.00149  -0.00155   1.92928
   A37        1.93612  -0.00312   0.00000  -0.01810  -0.01826   1.91786
   A38        1.90802  -0.00012   0.00000  -0.00064  -0.00079   1.90723
   A39        1.91504  -0.00057   0.00000  -0.01462  -0.01478   1.90026
   A40        1.92108   0.00356   0.00000   0.01965   0.01954   1.94062
   A41        1.91953   0.00452   0.00000   0.02500   0.02491   1.94444
   A42        1.90466  -0.00598   0.00000  -0.03342  -0.03332   1.87134
   A43        1.90937  -0.00255   0.00000  -0.01062  -0.01089   1.89848
   A44        1.90474   0.00032   0.00000  -0.00005   0.00003   1.90477
   A45        1.90429   0.00007   0.00000  -0.00092  -0.00080   1.90349
    D1       -0.14906   0.00215   0.00000   0.04699   0.04736  -0.10171
    D2        3.00110   0.00189   0.00000   0.03651   0.03614   3.03724
    D3       -2.68623   0.00258   0.00000   0.03921   0.03926  -2.64697
    D4        1.51846  -0.00079   0.00000   0.00630   0.00623   1.52469
    D5       -0.59174   0.00092   0.00000   0.02334   0.02336  -0.56838
    D6       -0.11192   0.00050   0.00000   0.01324   0.01256  -0.09936
    D7        3.05365   0.00162   0.00000   0.03056   0.03124   3.08488
    D8       -2.04663  -0.00055   0.00000  -0.00725  -0.00693  -2.05356
    D9        0.09511   0.00016   0.00000  -0.01530  -0.01525   0.07986
   D10        2.20546  -0.00161   0.00000  -0.02702  -0.02740   2.17806
   D11        2.98947   0.00123   0.00000   0.01460   0.01450   3.00397
   D12       -1.19721   0.00059   0.00000   0.01339   0.01354  -1.18368
   D13        0.91710  -0.00055   0.00000   0.00291   0.00286   0.91996
   D14       -1.05288  -0.00101   0.00000  -0.00728  -0.00755  -1.06043
   D15        1.05206   0.00098   0.00000   0.00807   0.00838   1.06045
   D16        3.14044   0.00013   0.00000   0.00151   0.00148  -3.14127
   D17        3.00640   0.00133   0.00000   0.01737   0.01740   3.02379
   D18       -0.12560   0.00081   0.00000   0.00482   0.00509  -0.12051
   D19        0.95197  -0.00160   0.00000  -0.01057  -0.01086   0.94111
   D20       -2.18003  -0.00212   0.00000  -0.02312  -0.02317  -2.20320
   D21       -1.16670   0.00121   0.00000   0.01667   0.01658  -1.15012
   D22        1.98449   0.00069   0.00000   0.00412   0.00427   1.98876
   D23        1.73683   0.00115   0.00000   0.00190   0.00230   1.73912
   D24       -1.37799   0.00166   0.00000   0.01856   0.01850  -1.35949
   D25       -0.30733  -0.00109   0.00000  -0.01930  -0.01922  -0.32655
   D26        2.86103  -0.00058   0.00000  -0.00265  -0.00302   2.85802
   D27       -2.44059  -0.00132   0.00000  -0.02183  -0.02163  -2.46222
   D28        0.72778  -0.00082   0.00000  -0.00518  -0.00543   0.72235
   D29        1.28523  -0.00384   0.00000  -0.04775  -0.04781   1.23742
   D30       -0.86466  -0.00162   0.00000  -0.02229  -0.02231  -0.88697
   D31       -3.00210   0.00009   0.00000  -0.00501  -0.00503  -3.00713
   D32       -2.94564  -0.00083   0.00000  -0.01306  -0.01304  -2.95868
   D33        1.18766   0.00139   0.00000   0.01240   0.01246   1.20011
   D34       -0.94978   0.00309   0.00000   0.02969   0.02974  -0.92004
   D35       -0.80165  -0.00220   0.00000  -0.03049  -0.03052  -0.83217
   D36       -2.95154   0.00002   0.00000  -0.00503  -0.00502  -2.95656
   D37        1.19421   0.00173   0.00000   0.01226   0.01226   1.20647
   D38       -3.13664   0.00119   0.00000   0.01393   0.01398  -3.12266
   D39        1.06473  -0.00074   0.00000  -0.00564  -0.00543   1.05930
   D40       -1.04941   0.00206   0.00000   0.02462   0.02470  -1.02471
   D41        1.12141  -0.00062   0.00000  -0.01506  -0.01523   1.10618
   D42       -0.96041  -0.00255   0.00000  -0.03463  -0.03463  -0.99504
   D43       -3.07455   0.00024   0.00000  -0.00437  -0.00451  -3.07906
   D44       -1.02793   0.00016   0.00000  -0.00089  -0.00096  -1.02888
   D45       -3.10974  -0.00177   0.00000  -0.02045  -0.02036  -3.13010
   D46        1.05930   0.00102   0.00000   0.00980   0.00976   1.06906
         Item               Value     Threshold  Converged?
 Maximum Force            0.025413     0.000450     NO 
 RMS     Force            0.008654     0.000300     NO 
 Maximum Displacement     0.383563     0.001800     NO 
 RMS     Displacement     0.091142     0.001200     NO 
 Predicted change in Energy=-1.516250D-02
 GradGradGradGradGradGradGradGradGradGradGradGradGradGradGradGradGradGrad

                          Input orientation:                          
 ---------------------------------------------------------------------
 Center     Atomic      Atomic             Coordinates (Angstroms)
 Number     Number       Type             X           Y           Z
 ---------------------------------------------------------------------
      1          8           0        5.610155    1.160561    0.148539
      2          8           0        5.166014   -1.714859    0.272209
      3          8           0        5.772725    2.181387   -1.917803
      4          8           0        9.029177   -0.220782   -0.128720
      5          8           0        3.928027   -1.452993    2.215649
      6          6           0        4.046122    2.871950   -0.350069
      7          6           0        2.929712   -2.500249    0.268525
      8          6           0        5.217402    2.069324   -0.820279
      9          6           0        6.655085    0.170343   -0.126760
     10          6           0        4.017842   -1.822614    1.041329
     11          6           0        6.355931   -1.030492    0.762844
     12          6           0        8.028413    0.774977    0.179195
     13          6           0       10.393355    0.250899   -0.064587
     14          1           0        3.835202    3.655428   -1.077688
     15          1           0        4.275701    3.335273    0.612426
     16          1           0        2.881517   -3.552625    0.567638
     17          1           0        3.141724   -2.466464   -0.799559
     18          1           0        6.613153   -0.119049   -1.177529
     19          1           0        6.210512   -0.722329    1.797102
     20          1           0        7.187703   -1.732019    0.687925
     21          1           0        8.084097    1.059345    1.240785
     22          1           0        8.174869    1.670999   -0.436383
     23          1           0       10.566463    1.064352   -0.782577
     24          1           0       10.647329    0.608778    0.943701
     25          1           0        3.171183    2.235752   -0.228911
     26          1           0        1.971752   -2.032711    0.480471
     27          1           0       11.035837   -0.588184   -0.315473
 ---------------------------------------------------------------------
                    Distance matrix (angstroms):
                    1          2          3          4          5
     1  O    0.000000
     2  O    2.912146   0.000000
     3  O    2.310473   4.510541   0.000000
     4  O    3.697932   4.161375   4.424446   0.000000
     5  O    3.732715   2.319083   5.804916   5.747707   0.000000
     6  C    2.371425   4.762373   2.432246   5.868971   5.030108
     7  C    4.538799   2.370210   5.897496   6.523592   2.425834
     8  C    1.385177   3.939062   1.235111   4.500275   4.825564
     9  C    1.465674   2.435261   2.833848   2.406095   3.944483
    10  C    3.497409   1.386166   5.279024   5.389653   1.234388
    11  C    2.394633   1.457732   4.223999   2.932024   2.860746
    12  C    2.448997   3.794900   3.385782   1.444949   5.091577
    13  C    4.873594   5.594884   5.339608   1.444845   7.064219
    14  H    3.298250   5.695021   2.575380   6.550032   6.078705
    15  H    2.593324   5.139284   3.158257   5.982505   5.061492
    16  H    5.462164   2.946793   6.885884   7.027078   2.866981
    17  H    4.488580   2.410673   5.456662   6.336814   3.276717
    18  H    2.098063   2.596644   2.558580   2.635815   4.528020
    19  H    2.573609   2.097949   4.735372   3.450394   2.432856
    20  H    3.338655   2.064060   4.909861   2.518288   3.610718
    21  H    2.706222   4.141202   4.071621   2.099392   4.953294
    22  H    2.679634   4.584686   2.867996   2.098412   5.901548
    23  H    5.043930   6.164531   5.051379   2.107688   7.706829
    24  H    5.129315   5.991244   5.867117   2.111083   7.142672
    25  H    2.692041   4.453964   3.102149   6.353007   4.489491
    26  H    4.852333   3.216786   6.160985   7.311733   2.678419
    27  H    5.719392   6.005797   6.159410   2.048547   7.594435
                    6          7          8          9         10
     6  C    0.000000
     7  C    5.521734   0.000000
     8  C    1.495728   5.224942   0.000000
     9  C    3.762344   4.600730   2.480732   0.000000
    10  C    4.896500   1.496811   4.477914   3.505904   0.000000
    11  C    4.669352   3.760786   3.662156   1.524104   2.484285
    12  C    4.531672   6.060679   3.252086   1.531411   4.855454
    13  C    6.873047   7.961517   5.537890   3.739654   6.794827
    14  H    1.089842   6.365890   2.119543   4.582775   5.876439
    15  H    1.092598   5.998606   2.131214   4.027983   5.182109
    16  H    6.593455   1.095120   6.244116   5.346260   2.123336
    17  H    5.433106   1.089446   4.988210   4.443998   2.137988
    18  H    4.027458   4.618325   2.620062   1.090698   3.815902
    19  H    4.713148   4.032517   3.953515   2.166969   2.567026
    20  H    5.669523   4.347018   4.539491   2.136908   3.190787
    21  H    4.703360   6.339060   3.672327   2.168543   4.987976
    22  H    4.300731   6.738537   3.008762   2.158142   5.627596
    23  H    6.780067   8.493007   5.442779   4.065492   7.385502
    24  H    7.097303   8.347666   5.893125   4.156455   7.061961
    25  H    1.088552   4.768171   2.136452   4.051410   4.335975
    26  H    5.389666   1.086830   5.390073   5.211121   2.131944
    27  H    7.799348   8.349031   6.416492   4.449939   7.253757
                   11         12         13         14         15
    11  C    0.000000
    12  C    2.529340   0.000000
    13  C    4.315947   2.434551   0.000000
    14  H    5.630229   5.240207   7.458322   0.000000
    15  H    4.838377   4.563513   6.884577   1.775675   0.000000
    16  H    4.297768   6.735693   8.443590   7.454706   7.027723
    17  H    3.851525   5.945135   7.778843   6.167319   6.077809
    18  H    2.159153   2.154749   3.957957   4.687607   4.538718
    19  H    1.088945   2.857326   4.680731   5.750763   4.648773
    20  H    1.090687   2.692699   3.843754   6.586444   5.844904
    21  H    2.753617   1.100427   2.773131   5.492547   4.480911
    22  H    3.470552   1.096923   2.660187   4.814763   4.367301
    23  H    4.950281   2.729550   1.098718   7.218770   6.832042
    24  H    4.597392   2.733279   1.099648   7.731310   6.938383
    25  H    4.668463   5.088526   7.491756   1.782364   1.771088
    26  H    4.506129   6.682590   8.742732   6.185081   5.843017
    27  H    4.822855   3.338788   1.086180   8.392756   7.871083
                   16         17         18         19         20
    16  H    0.000000
    17  H    1.765412   0.000000
    18  H    5.362850   4.207617   0.000000
    19  H    4.539203   4.382021   3.061781   0.000000
    20  H    4.676785   4.372867   2.532134   1.790154   0.000000
    21  H    6.985001   6.404794   3.066029   2.644650   2.983436
    22  H    7.504258   6.525569   2.488479   3.817745   3.717404
    23  H    9.066309   8.221539   4.145489   5.368546   4.625807
    24  H    8.818534   8.296395   4.615617   4.710147   4.184945
    25  H    5.850103   4.736807   4.276929   4.700265   5.719810
    26  H    1.773530   1.787583   5.287123   4.627926   5.228728
    27  H    8.721281   8.128917   4.530271   5.269226   4.138031
                   21         22         23         24         25
    21  H    0.000000
    22  H    1.787526   0.000000
    23  H    3.202524   2.491504   0.000000
    24  H    2.619432   3.024235   1.787211   0.000000
    25  H    5.261242   5.039729   7.507922   7.740466   0.000000
    26  H    6.891999   7.282633   9.222589   9.080621   4.490171
    27  H    3.721433   3.647419   1.780273   1.780218   8.356727
                   26         27
    26  H    0.000000
    27  H    9.212916   0.000000
 Stoichiometry    C8H14O5
 Framework group  C1[X(C8H14O5)]
 Deg. of freedom    75
 Full point group                 C1      NOp   1
 Largest Abelian subgroup         C1      NOp   1
 Largest concise Abelian subgroup C1      NOp   1
                         Standard orientation:                         
 ---------------------------------------------------------------------
 Center     Atomic      Atomic             Coordinates (Angstroms)
 Number     Number       Type             X           Y           Z
 ---------------------------------------------------------------------
      1          8           0        0.060793    1.065163    0.442333
      2          8           0       -1.423774   -1.231913   -0.557718
      3          8           0        0.953815    2.566774   -1.069606
      4          8           0        2.722805   -1.405605   -0.253150
      5          8           0       -2.804710   -1.166247    1.304229
      6          6           0       -0.648281    3.322806    0.596985
      7          6           0       -3.752767   -0.983793   -0.921208
      8          6           0        0.209632    2.324953   -0.113984
      9          6           0        0.699588   -0.106399   -0.163954
     10          6           0       -2.648721   -1.116501    0.080747
     11          6           0       -0.173922   -1.304437    0.189005
     12          6           0        2.120523   -0.258463    0.386536
     13          6           0        4.129736   -1.584302    0.022872
     14          1           0       -0.422671    4.320209    0.220098
     15          1           0       -0.440470    3.294225    1.669258
     16          1           0       -4.237115   -1.957521   -1.049848
     17          1           0       -3.355938   -0.678259   -1.888714
     18          1           0        0.742752    0.023029   -1.246085
     19          1           0       -0.378215   -1.335915    1.258152
     20          1           0        0.340657   -2.212627   -0.127218
     21          1           0        2.086129   -0.401439    1.477093
     22          1           0        2.693633    0.650382    0.165658
     23          1           0        4.715119   -0.721442   -0.323510
     24          1           0        4.312860   -1.727753    1.097633
     25          1           0       -1.702324    3.099495    0.441839
     26          1           0       -4.493025   -0.268994   -0.571525
     27          1           0        4.452446   -2.471946   -0.513536
 ---------------------------------------------------------------------
 Rotational constants (GHZ):      0.8107918      0.4910061      0.3415864
 Standard basis: 6-311++G (5D, 7F)
 There are   277 symmetry adapted cartesian basis functions of A   symmetry.
 There are   277 symmetry adapted basis functions of A   symmetry.
   277 basis functions,   474 primitive gaussians,   277 cartesian basis functions
    51 alpha electrons       51 beta electrons
       nuclear repulsion energy       838.7246604301 Hartrees.
 NAtoms=   27 NActive=   27 NUniq=   27 SFac= 1.00D+00 NAtFMM=   60 NAOKFM=F Big=F
 Integral buffers will be    131072 words long.
 Raffenetti 2 integral format.
 Two-electron integral symmetry is turned on.
 One-electron integrals computed using PRISM.
 NBasis=   277 RedAO= T EigKep=  8.91D-06  NBF=   277
 NBsUse=   277 1.00D-06 EigRej= -1.00D+00 NBFU=   277
 Initial guess from the checkpoint file:  "TC.chk"
 B after Tr=     0.000000    0.000000    0.000000
         Rot=    0.999909   -0.002085    0.001955   -0.013188 Ang=  -1.55 deg.
 ExpMin= 3.60D-02 ExpMax= 8.59D+03 ExpMxC= 1.30D+03 IAcc=3 IRadAn=         5 AccDes= 0.00D+00
 Harris functional with IExCor=  402 and IRadAn=       5 diagonalized for initial guess.
 HarFok:  IExCor=  402 AccDes= 0.00D+00 IRadAn=         5 IDoV= 1 UseB2=F ITyADJ=14
 ICtDFT=  3500011 ScaDFX=  1.000000  1.000000  1.000000  1.000000
 FoFCou: FMM=F IPFlag=           0 FMFlag=      100000 FMFlg1=           0
         NFxFlg=           0 DoJE=T BraDBF=F KetDBF=T FulRan=T
         wScrn=  0.000000 ICntrl=     500 IOpCl=  0 I1Cent=   200000004 NGrid=           0
         NMat0=    1 NMatS0=      1 NMatT0=    0 NMatD0=    1 NMtDS0=    0 NMtDT0=    0
 Petite list used in FoFCou.
 Requested convergence on RMS density matrix=1.00D-08 within 128 cycles.
 Requested convergence on MAX density matrix=1.00D-06.
 Requested convergence on             energy=1.00D-06.
 No special actions if energy rises.
 SCF Done:  E(RB3LYP) =  -689.389570179     A.U. after   13 cycles
            NFock= 13  Conv=0.56D-08     -V/T= 2.0034
 Calling FoFJK, ICntrl=      2127 FMM=F ISym2X=0 I1Cent= 0 IOpClX= 0 NMat=1 NMatS=1 NMatT=0.
 ***** Axes restored to original set *****
 -------------------------------------------------------------------
 Center     Atomic                   Forces (Hartrees/Bohr)
 Number     Number              X              Y              Z
 -------------------------------------------------------------------
      1        8          -0.002859782    0.004625823    0.000597196
      2        8          -0.006410249   -0.000917062   -0.002236422
      3        8          -0.000327670   -0.003142155    0.005025023
      4        8          -0.002617218   -0.005510718   -0.001562203
      5        8           0.003899478    0.000877198   -0.005102576
      6        6           0.002602457    0.006700819   -0.000694719
      7        6           0.002333438   -0.003075321   -0.004987349
      8        6           0.002182822   -0.001811860   -0.003628946
      9        6           0.004937332   -0.008751757   -0.002322147
     10        6           0.002671026    0.000484765    0.004382707
     11        6           0.006125991    0.003695651    0.001932445
     12        6          -0.002759638    0.007284211    0.003091339
     13        6           0.005468799    0.006494654    0.001935409
     14        1          -0.000469627   -0.002288896    0.000796706
     15        1          -0.002069963   -0.002087802   -0.000259259
     16        1          -0.001325693    0.001932955    0.000362258
     17        1          -0.001514323    0.000225245    0.001505833
     18        1          -0.000739546    0.001485195    0.000382228
     19        1          -0.001216428   -0.000361252    0.000371076
     20        1          -0.002581950    0.000482287    0.000510283
     21        1           0.000364440    0.000063826   -0.002120872
     22        1          -0.000272548   -0.001505230    0.000749536
     23        1          -0.001144633   -0.001767403    0.001091331
     24        1          -0.001316291   -0.001173843   -0.001956414
     25        1          -0.000655637   -0.000409620    0.001262492
     26        1          -0.000573427   -0.000410422    0.001170552
     27        1          -0.001731161   -0.001139289   -0.000295508
 -------------------------------------------------------------------
 Cartesian Forces:  Max     0.008751757 RMS     0.002952782

 GradGradGradGradGradGradGradGradGradGradGradGradGradGradGradGradGradGrad
 Berny optimization.
 Using GEDIIS/GDIIS optimizer.
 FormGI is forming the generalized inverse of G from B-inverse, IUseBI=4.
 Internal  Forces:  Max     0.011875057 RMS     0.002272962
 Search for a local minimum.
 Step number   2 out of a maximum of  127
 All quantities printed in internal units (Hartrees-Bohrs-Radians)
 Mixed Optimization -- RFO/linear search
 Update second derivatives using D2CorX and points    1    2
 DE= -1.26D-02 DEPred=-1.52D-02 R= 8.34D-01
 TightC=F SS=  1.41D+00  RLast= 3.23D-01 DXNew= 5.0454D-01 9.6795D-01
 Trust test= 8.34D-01 RLast= 3.23D-01 DXMaxT set to 5.05D-01
 ITU=  1  0
 Use linear search instead of GDIIS.
     Eigenvalues ---    0.00357   0.00373   0.00781   0.00792   0.01104
     Eigenvalues ---    0.01114   0.01205   0.01299   0.01324   0.01373
     Eigenvalues ---    0.02083   0.02091   0.04351   0.05067   0.05185
     Eigenvalues ---    0.05362   0.05902   0.05979   0.07299   0.07316
     Eigenvalues ---    0.07392   0.07492   0.07575   0.10029   0.10478
     Eigenvalues ---    0.11054   0.11295   0.13611   0.13716   0.15745
     Eigenvalues ---    0.16000   0.16000   0.16000   0.16000   0.16000
     Eigenvalues ---    0.16000   0.16000   0.16065   0.16393   0.19419
     Eigenvalues ---    0.21979   0.22136   0.24286   0.24991   0.25000
     Eigenvalues ---    0.25000   0.25000   0.25000   0.27522   0.29164
     Eigenvalues ---    0.29389   0.31110   0.31219   0.31302   0.31320
     Eigenvalues ---    0.31334   0.31359   0.31364   0.31398   0.31434
     Eigenvalues ---    0.31466   0.32263   0.32557   0.34374   0.34836
     Eigenvalues ---    0.34876   0.35113   0.39573   0.40733   0.41251
     Eigenvalues ---    0.41802   0.50951   0.52807   0.90558   0.91253
 RFO step:  Lambda=-2.36467148D-03 EMin= 3.56821730D-03
 Quartic linear search produced a step of -0.05314.
 Iteration  1 RMS(Cart)=  0.05356867 RMS(Int)=  0.00113320
 Iteration  2 RMS(Cart)=  0.00224652 RMS(Int)=  0.00004857
 Iteration  3 RMS(Cart)=  0.00000376 RMS(Int)=  0.00004855
 Iteration  4 RMS(Cart)=  0.00000000 RMS(Int)=  0.00004855
 Variable       Old X    -DE/DX   Delta X   Delta X   Delta X     New X
                                 (Linear)    (Quad)   (Total)
    R1        2.61760  -0.00410  -0.00149  -0.00393  -0.00542   2.61218
    R2        2.76972   0.00279  -0.00290   0.01364   0.01074   2.78046
    R3        2.61947  -0.00603  -0.00166  -0.00708  -0.00873   2.61074
    R4        2.75471   0.00281  -0.00281   0.01331   0.01049   2.76521
    R5        2.33402  -0.00490  -0.00039  -0.00416  -0.00454   2.32948
    R6        2.73056   0.00136  -0.00209   0.00818   0.00608   2.73664
    R7        2.73036   0.00203  -0.00171   0.00881   0.00710   2.73746
    R8        2.33266  -0.00487  -0.00031  -0.00431  -0.00462   2.32803
    R9        2.82652   0.00184   0.00023   0.00473   0.00496   2.83148
   R10        2.05950  -0.00209   0.00324  -0.01417  -0.01093   2.04857
   R11        2.06471  -0.00155   0.00295  -0.01186  -0.00891   2.05580
   R12        2.05706   0.00091   0.00012   0.00216   0.00228   2.05934
   R13        2.82856   0.00239   0.00020   0.00639   0.00659   2.83516
   R14        2.06948  -0.00170   0.00274  -0.01179  -0.00905   2.06043
   R15        2.05875  -0.00177   0.00321  -0.01314  -0.00992   2.04883
   R16        2.05381   0.00055   0.00030   0.00076   0.00106   2.05487
   R17        2.88014  -0.00379   0.00056  -0.01346  -0.01289   2.86725
   R18        2.89395  -0.00232  -0.00005  -0.00729  -0.00734   2.88661
   R19        2.06112  -0.00073   0.00333  -0.01037  -0.00703   2.05409
   R20        2.05781   0.00041   0.00311  -0.00638  -0.00327   2.05454
   R21        2.06110  -0.00231   0.00333  -0.01510  -0.01178   2.04932
   R22        2.07950  -0.00201   0.00217  -0.01132  -0.00915   2.07035
   R23        2.07288  -0.00168   0.00256  -0.01132  -0.00875   2.06413
   R24        2.07628  -0.00220   0.00224  -0.01205  -0.00981   2.06647
   R25        2.07803  -0.00248   0.00224  -0.01289  -0.01065   2.06738
   R26        2.05258  -0.00008   0.00032  -0.00100  -0.00068   2.05190
    A1        2.11065  -0.00840  -0.00279  -0.02465  -0.02744   2.08321
    A2        2.12454  -0.01188  -0.00280  -0.03764  -0.04044   2.08411
    A3        2.00369  -0.00272  -0.00272  -0.00353  -0.00625   1.99744
    A4        1.90438   0.00035  -0.00100   0.00787   0.00680   1.91118
    A5        1.91766   0.00147  -0.00093   0.01160   0.01060   1.92825
    A6        1.92921  -0.00032  -0.00010  -0.00583  -0.00593   1.92328
    A7        1.90070   0.00075  -0.00032   0.01353   0.01306   1.91376
    A8        1.91655  -0.00035   0.00060  -0.00511  -0.00450   1.91205
    A9        1.89513  -0.00189   0.00171  -0.02184  -0.02012   1.87501
[...]
                 (A) (A) (A)
       Virtual   (A) (A) (A) (A) (A) (A) (A) (A) (A) (A) (A) (A)
                 (A) (A) (A) (A) (A) (A) (A) (A) (A) (A) (A) (A)
                 (A) (A) (A) (A) (A) (A) (A) (A) (A) (A) (A) (A)
                 (A) (A) (A) (A) (A) (A) (A) (A) (A) (A) (A) (A)
                 (A) (A) (A) (A) (A) (A) (A) (A) (A) (A) (A) (A)
                 (A) (A) (A) (A) (A) (A) (A) (A) (A) (A) (A) (A)
                 (A) (A) (A) (A) (A) (A) (A) (A) (A) (A) (A) (A)
                 (A) (A) (A) (A) (A) (A) (A) (A) (A) (A) (A) (A)
                 (A) (A) (A) (A) (A) (A) (A) (A) (A) (A) (A) (A)
                 (A) (A) (A) (A) (A) (A) (A) (A) (A) (A) (A) (A)
                 (A) (A) (A) (A) (A) (A) (A) (A) (A) (A) (A) (A)
                 (A) (A) (A) (A) (A) (A) (A) (A) (A) (A) (A) (A)
                 (A) (A) (A) (A) (A) (A) (A) (A) (A) (A) (A) (A)
                 (A) (A) (A) (A) (A) (A) (A) (A) (A) (A) (A) (A)
                 (A) (A) (A) (A) (A) (A) (A) (A) (A) (A) (A) (A)
                 (A) (A) (A) (A) (A) (A) (A) (A) (A) (A) (A) (A)
                 (A) (A) (A) (A) (A) (A) (A) (A) (A) (A) (A) (A)
                 (A) (A) (A) (A) (A) (A) (A) (A) (A) (A) (A) (A)
                 (A) (A) (A) (A) (A) (A) (A) (A) (A) (A)
 The electronic state is 1-A.
 Alpha  occ. eigenvalues --  -19.18081 -19.17726 -19.14620 -19.13488 -19.12942
 Alpha  occ. eigenvalues --  -10.33355 -10.32772 -10.25783 -10.24492 -10.24366
 Alpha  occ. eigenvalues --  -10.23148 -10.19463 -10.19034  -1.12254  -1.11573
 Alpha  occ. eigenvalues --   -1.04896  -1.04005  -1.03185  -0.82940  -0.77870
 Alpha  occ. eigenvalues --   -0.76526  -0.72927  -0.68446  -0.63522  -0.58686
 Alpha  occ. eigenvalues --   -0.58541  -0.52003  -0.51115  -0.50339  -0.49836
 Alpha  occ. eigenvalues --   -0.48853  -0.48635  -0.47817  -0.47062  -0.46101
 Alpha  occ. eigenvalues --   -0.44817  -0.43991  -0.42649  -0.42080  -0.41395
 Alpha  occ. eigenvalues --   -0.40236  -0.38526  -0.38273  -0.36848  -0.35466
 Alpha  occ. eigenvalues --   -0.33876  -0.31644  -0.31292  -0.29264  -0.28662
 Alpha  occ. eigenvalues --   -0.27949
 Alpha virt. eigenvalues --   -0.02440  -0.01851  -0.01429  -0.00911   0.00027
 Alpha virt. eigenvalues --    0.01173   0.01673   0.02050   0.02931   0.03306
 Alpha virt. eigenvalues --    0.03668   0.03975   0.04429   0.05037   0.05344
 Alpha virt. eigenvalues --    0.06035   0.06653   0.06671   0.07590   0.07930
 Alpha virt. eigenvalues --    0.08547   0.08702   0.09399   0.09962   0.10359
 Alpha virt. eigenvalues --    0.10593   0.10835   0.11568   0.11907   0.11964
 Alpha virt. eigenvalues --    0.12609   0.12790   0.13025   0.13355   0.13464
 Alpha virt. eigenvalues --    0.13860   0.14274   0.14562   0.14976   0.15139
 Alpha virt. eigenvalues --    0.15717   0.16163   0.16608   0.16694   0.17326
 Alpha virt. eigenvalues --    0.17714   0.18173   0.18422   0.18717   0.19466
 Alpha virt. eigenvalues --    0.19601   0.20201   0.20472   0.20911   0.21396
 Alpha virt. eigenvalues --    0.21645   0.22617   0.23682   0.24358   0.24638
 Alpha virt. eigenvalues --    0.24743   0.25817   0.26550   0.26777   0.27315
 Alpha virt. eigenvalues --    0.28245   0.28342   0.29105   0.29623   0.30944
 Alpha virt. eigenvalues --    0.31197   0.31684   0.31992   0.32709   0.33062
 Alpha virt. eigenvalues --    0.33574   0.34250   0.34653   0.34872   0.35575
 Alpha virt. eigenvalues --    0.36100   0.36410   0.37679   0.38349   0.39077
 Alpha virt. eigenvalues --    0.40059   0.40457   0.41389   0.42579   0.43169
 Alpha virt. eigenvalues --    0.44628   0.44990   0.45493   0.45817   0.46281
 Alpha virt. eigenvalues --    0.47353   0.48080   0.49732   0.51971   0.52784
 Alpha virt. eigenvalues --    0.53736   0.55227   0.55489   0.58653   0.60107
 Alpha virt. eigenvalues --    0.60568   0.61112   0.62360   0.62718   0.63804
 Alpha virt. eigenvalues --    0.63997   0.64419   0.64898   0.65143   0.65958
 Alpha virt. eigenvalues --    0.66641   0.67138   0.67711   0.70497   0.70652
 Alpha virt. eigenvalues --    0.71020   0.71625   0.73070   0.73272   0.74420
 Alpha virt. eigenvalues --    0.75174   0.76428   0.77161   0.78123   0.80860
 Alpha virt. eigenvalues --    0.82346   0.84434   0.92539   0.93559   0.97460
 Alpha virt. eigenvalues --    1.00390   1.06033   1.08050   1.09650   1.12347
 Alpha virt. eigenvalues --    1.13971   1.16323   1.18007   1.18508   1.19581
 Alpha virt. eigenvalues --    1.22692   1.23398   1.24489   1.27370   1.28635
 Alpha virt. eigenvalues --    1.28799   1.31411   1.34313   1.40545   1.42119
 Alpha virt. eigenvalues --    1.64523   1.66321   1.67383   1.71084   1.74385
 Alpha virt. eigenvalues --    2.34120   2.34694   2.34951   2.37004   2.37916
 Alpha virt. eigenvalues --    2.39180   2.43548   2.47153   2.47930   2.50839
 Alpha virt. eigenvalues --    2.51324   2.52291   2.55115   2.57228   2.67959
 Alpha virt. eigenvalues --    2.68156   2.85568   2.86293   2.89035   2.89332
 Alpha virt. eigenvalues --    2.90859   2.93009   2.96005   2.96801   2.98676
 Alpha virt. eigenvalues --    2.99523   3.00289   3.01589   3.01750   3.01947
 Alpha virt. eigenvalues --    3.03613   3.06423   3.08504   3.10374   3.14406
 Alpha virt. eigenvalues --    3.17466   3.20541   3.22513   5.00214   5.02713
 Alpha virt. eigenvalues --    5.02889   5.06042   5.06141   5.08087   5.08207
 Alpha virt. eigenvalues --    5.10816   5.14244   5.14853   5.16834   5.17131
 Alpha virt. eigenvalues --    5.18368   5.25191   5.26847  23.39934  23.40711
 Alpha virt. eigenvalues --   23.43341  23.47643  23.53130  23.53829  23.54957
 Alpha virt. eigenvalues --   23.62424  49.84827  49.86424  49.88215  49.89383
 Alpha virt. eigenvalues --   49.89671
          Condensed to atoms (all electrons):
               1          2          3          4          5          6
     1  O    9.290812  -0.030778  -0.279807  -0.001438  -0.000861  -0.795123
     2  O   -0.030778   9.430857   0.003033  -0.002909  -0.223950   0.006627
     3  O   -0.279807   0.003033   8.252991   0.000715  -0.000116   0.173092
     4  O   -0.001438  -0.002909   0.000715   8.470049   0.000194   0.002572
     5  O   -0.000861  -0.223950  -0.000116   0.000194   8.290358   0.001375
     6  C   -0.795123   0.006627   0.173092   0.002572   0.001375   8.623726
     7  C    0.007223  -0.728361   0.000024  -0.002309   0.131798   0.023189
     8  C   -0.068837   0.015890   0.170692   0.012746  -0.002674  -1.768148
     9  C    0.379467  -0.517889   0.170521  -0.194136   0.127056  -0.139196
    10  C   -0.017712  -0.300098   0.002623  -0.003438   0.201627  -0.001316
    11  C   -0.640326   0.328358  -0.038736   0.213417  -0.186206  -0.044012
    12  C    0.119700   0.061306  -0.179438  -0.075680   0.015124  -0.115255
    13  C   -0.002394  -0.002609  -0.000580  -0.091867   0.000533   0.006593
    14  H    0.020819  -0.000116  -0.002202  -0.000019  -0.000021   0.372587
    15  H    0.029077  -0.000295  -0.004307  -0.000004   0.000112   0.248690
    16  H   -0.000430   0.024330  -0.000223   0.000021  -0.008268  -0.000518
    17  H    0.001482   0.006358   0.000226   0.000006  -0.007392  -0.003443
    18  H   -0.034155  -0.016780   0.030374  -0.003880  -0.006449   0.001299
    19  H   -0.026335  -0.011096  -0.002158   0.008036   0.007671   0.016571
    20  H    0.019711   0.025115   0.000791   0.049649  -0.014964  -0.007313
    21  H    0.017911  -0.004470  -0.000130  -0.102046   0.000435  -0.013813
    22  H   -0.022489  -0.000412   0.004115  -0.032843   0.000249   0.006948
    23  H    0.000648  -0.000113  -0.000673  -0.040008   0.000012  -0.000817
    24  H   -0.001398   0.000751   0.000184  -0.060536  -0.000149   0.000310
    25  H   -0.006518   0.001266  -0.008976   0.000005  -0.000388   0.326079
    26  H   -0.000450   0.016238  -0.000020  -0.000059   0.004329   0.000641
    27  H    0.000154  -0.000533  -0.000076  -0.044076   0.000125   0.000415
               7          8          9         10         11         12
     1  O    0.007223  -0.068837   0.379467  -0.017712  -0.640326   0.119700
     2  O   -0.728361   0.015890  -0.517889  -0.300098   0.328358   0.061306
     3  O    0.000024   0.170692   0.170521   0.002623  -0.038736  -0.179438
     4  O   -0.002309   0.012746  -0.194136  -0.003438   0.213417  -0.075680
     5  O    0.131798  -0.002674   0.127056   0.201627  -0.186206   0.015124
     6  C    0.023189  -1.768148  -0.139196  -0.001316  -0.044012  -0.115255
     7  C    8.293643  -0.016035   0.225324  -1.515887  -0.243962   0.011981
     8  C   -0.016035   7.544435  -0.917317   0.002183   0.150110   0.407684
     9  C    0.225324  -0.917317  25.199494   0.322526 -12.338332  -4.983760
    10  C   -1.515887   0.002183   0.322526   7.273840  -0.353235  -0.118351
    11  C   -0.243962   0.150110 -12.338332  -0.353235  19.389738  -0.636113
    12  C    0.011981   0.407684  -4.983760  -0.118351  -0.636113  11.445580
    13  C    0.000588   0.005808  -0.351451   0.005280   0.135070  -0.104911
    14  H   -0.000464  -0.045242   0.007015  -0.000326  -0.007006  -0.005666
    15  H    0.000611   0.033202  -0.008851   0.000204   0.005297   0.012262
    16  H    0.264057   0.002425  -0.025926   0.022854   0.026916  -0.001303
    17  H    0.295010   0.000255  -0.012619   0.009049   0.019653  -0.001974
    18  H   -0.011451   0.020346   0.503807   0.016385  -0.305147  -0.039388
    19  H   -0.016985   0.011264  -0.169837  -0.005009   0.485254  -0.037182
    20  H   -0.061928   0.006318  -0.383694  -0.026728   0.393170   0.183334
    21  H    0.005408   0.039930   0.091782   0.006672  -0.459476   0.598123
    22  H   -0.000178  -0.052252  -0.076895  -0.001682   0.366420   0.030017
    23  H    0.000073  -0.002406   0.001148   0.000387   0.028751  -0.051281
    24  H   -0.000242  -0.000202   0.039253   0.000021  -0.035146  -0.011739
    25  H   -0.003528   0.000271  -0.020807  -0.001018   0.011968   0.005594
    26  H    0.376253  -0.001805   0.018983  -0.047028  -0.028118  -0.000954
    27  H    0.000176   0.002337  -0.018385   0.000333  -0.002418   0.033179
              13         14         15         16         17         18
     1  O   -0.002394   0.020819   0.029077  -0.000430   0.001482  -0.034155
     2  O   -0.002609  -0.000116  -0.000295   0.024330   0.006358  -0.016780
     3  O   -0.000580  -0.002202  -0.004307  -0.000223   0.000226   0.030374
     4  O   -0.091867  -0.000019  -0.000004   0.000021   0.000006  -0.003880
     5  O    0.000533  -0.000021   0.000112  -0.008268  -0.007392  -0.006449
     6  C    0.006593   0.372587   0.248690  -0.000518  -0.003443   0.001299
     7  C    0.000588  -0.000464   0.000611   0.264057   0.295010  -0.011451
     8  C    0.005808  -0.045242   0.033202   0.002425   0.000255   0.020346
     9  C   -0.351451   0.007015  -0.008851  -0.025926  -0.012619   0.503807
    10  C    0.005280  -0.000326   0.000204   0.022854   0.009049   0.016385
    11  C    0.135070  -0.007006   0.005297   0.026916   0.019653  -0.305147
    12  C   -0.104911  -0.005666   0.012262  -0.001303  -0.001974  -0.039388
    13  C    5.736984   0.000020  -0.000552  -0.000042  -0.000056  -0.002746
    14  H    0.000020   0.453219  -0.020772  -0.000022   0.000156  -0.000687
    15  H   -0.000552  -0.020772   0.492413   0.000030  -0.000036  -0.000652
    16  H   -0.000042  -0.000022   0.000030   0.486572  -0.047980   0.000046
    17  H   -0.000056   0.000156  -0.000036  -0.047980   0.497977   0.000583
    18  H   -0.002746  -0.000687  -0.000652   0.000046   0.000583   0.466091
    19  H    0.006637  -0.000385   0.000437   0.002656  -0.002391  -0.014636
    20  H   -0.008026   0.000399  -0.000122   0.000158   0.001868  -0.008132
    21  H   -0.007426  -0.000390  -0.000863  -0.000227  -0.000032   0.030949
    22  H    0.020241   0.000976  -0.002218   0.000004   0.000171  -0.050498
    23  H    0.387056  -0.000021   0.000119   0.000008   0.000001  -0.005695
    24  H    0.368978  -0.000028   0.000002   0.000006  -0.000008   0.006280
    25  H    0.000069  -0.022829  -0.048427   0.000119  -0.000357  -0.000276
    26  H   -0.000007  -0.000020   0.000001  -0.022385  -0.024640  -0.000045
    27  H    0.378274  -0.000008  -0.000022  -0.000034  -0.000012  -0.000960
              19         20         21         22         23         24
     1  O   -0.026335   0.019711   0.017911  -0.022489   0.000648  -0.001398
     2  O   -0.011096   0.025115  -0.004470  -0.000412  -0.000113   0.000751
     3  O   -0.002158   0.000791  -0.000130   0.004115  -0.000673   0.000184
     4  O    0.008036   0.049649  -0.102046  -0.032843  -0.040008  -0.060536
     5  O    0.007671  -0.014964   0.000435   0.000249   0.000012  -0.000149
     6  C    0.016571  -0.007313  -0.013813   0.006948  -0.000817   0.000310
     7  C   -0.016985  -0.061928   0.005408  -0.000178   0.000073  -0.000242
     8  C    0.011264   0.006318   0.039930  -0.052252  -0.002406  -0.000202
     9  C   -0.169837  -0.383694   0.091782  -0.076895   0.001148   0.039253
    10  C   -0.005009  -0.026728   0.006672  -0.001682   0.000387   0.000021
    11  C    0.485254   0.393170  -0.459476   0.366420   0.028751  -0.035146
    12  C   -0.037182   0.183334   0.598123   0.030017  -0.051281  -0.011739
    13  C    0.006637  -0.008026  -0.007426   0.020241   0.387056   0.368978
    14  H   -0.000385   0.000399  -0.000390   0.000976  -0.000021  -0.000028
    15  H    0.000437  -0.000122  -0.000863  -0.002218   0.000119   0.000002
    16  H    0.002656   0.000158  -0.000227   0.000004   0.000008   0.000006
    17  H   -0.002391   0.001868  -0.000032   0.000171   0.000001  -0.000008
    18  H   -0.014636  -0.008132   0.030949  -0.050498  -0.005695   0.006280
    19  H    0.494539  -0.051769  -0.022722   0.005006   0.000767  -0.001141
    20  H   -0.051769   0.528504   0.004918   0.000388  -0.000282  -0.003408
    21  H   -0.022722   0.004918   0.621257  -0.131180  -0.019131   0.029872
    22  H    0.005006   0.000388  -0.131180   0.653502   0.034863  -0.021147
    23  H    0.000767  -0.000282  -0.019131   0.034863   0.559401  -0.083585
    24  H   -0.001141  -0.003408   0.029872  -0.021147  -0.083585   0.571503
    25  H   -0.000434   0.000392   0.001136  -0.000788   0.000004  -0.000005
    26  H    0.000919  -0.000693   0.000012  -0.000058  -0.000002   0.000015
    27  H    0.000721  -0.000994   0.003657  -0.002812  -0.020071  -0.018691
              25         26         27
     1  O   -0.006518  -0.000450   0.000154
     2  O    0.001266   0.016238  -0.000533
     3  O   -0.008976  -0.000020  -0.000076
     4  O    0.000005  -0.000059  -0.044076
     5  O   -0.000388   0.004329   0.000125
     6  C    0.326079   0.000641   0.000415
     7  C   -0.003528   0.376253   0.000176
     8  C    0.000271  -0.001805   0.002337
     9  C   -0.020807   0.018983  -0.018385
    10  C   -0.001018  -0.047028   0.000333
    11  C    0.011968  -0.028118  -0.002418
    12  C    0.005594  -0.000954   0.033179
    13  C    0.000069  -0.000007   0.378274
    14  H   -0.022829  -0.000020  -0.000008
    15  H   -0.048427   0.000001  -0.000022
    16  H    0.000119  -0.022385  -0.000034
    17  H   -0.000357  -0.024640  -0.000012
    18  H   -0.000276  -0.000045  -0.000960
    19  H   -0.000434   0.000919   0.000721
    20  H    0.000392  -0.000693  -0.000994
    21  H    0.001136   0.000012   0.003657
    22  H   -0.000788  -0.000058  -0.002812
    23  H    0.000004  -0.000002  -0.020071
    24  H   -0.000005   0.000015  -0.018691
    25  H    0.481372   0.000027   0.000019
    26  H    0.000027   0.453718   0.000009
    27  H    0.000019   0.000009   0.461932
 Mulliken charges:
               1
     1  O    0.042048
     2  O   -0.079721
     3  O   -0.291941
     4  O   -0.102159
     5  O   -0.329560
     6  C   -0.921759
     7  C   -1.034027
     8  C    0.449021
     9  C   -0.927282
    10  C    0.527845
    11  C   -0.235888
    12  C   -0.560890
    13  C   -0.479462
    14  H    0.251034
    15  H    0.264665
    16  H    0.277156
    17  H    0.268147
    18  H    0.425417
    19  H    0.321602
    20  H    0.353338
    21  H    0.309843
    22  H    0.272551
    23  H    0.210846
    24  H    0.220250
    25  H    0.286032
    26  H    0.255139
    27  H    0.227758
 Sum of Mulliken charges =   0.00000
 Mulliken charges with hydrogens summed into heavy atoms:
               1
     1  O    0.042048
     2  O   -0.079721
     3  O   -0.291941
     4  O   -0.102159
     5  O   -0.329560
     6  C   -0.120029
     7  C   -0.233586
     8  C    0.449021
     9  C   -0.501864
    10  C    0.527845
    11  C    0.439051
    12  C    0.021503
    13  C    0.179392
 Electronic spatial extent (au):  <R**2>=           3439.1070
 Charge=              0.0000 electrons
 Dipole moment (field-independent basis, Debye):
    X=              1.6939    Y=              1.1026    Z=              1.2628  Tot=              2.3832
 Quadrupole moment (field-independent basis, Debye-Ang):
   XX=            -68.6737   YY=            -78.2324   ZZ=            -84.3558
   XY=            -13.2009   XZ=             10.7068   YZ=              9.1169
 Traceless Quadrupole moment (field-independent basis, Debye-Ang):
   XX=              8.4136   YY=             -1.1451   ZZ=             -7.2685
   XY=            -13.2009   XZ=             10.7068   YZ=              9.1169
 Octapole moment (field-independent basis, Debye-Ang**2):
  XXX=             15.1800  YYY=             24.5087  ZZZ=              2.7382  XYY=             24.5890
  XXY=             -1.9569  XXZ=            -19.0641  XZZ=             -1.7239  YZZ=             -7.2533
  YYZ=             13.6917  XYZ=             -5.8794
 Hexadecapole moment (field-independent basis, Debye-Ang**3):
 XXXX=          -2248.4750 YYYY=          -1619.2643 ZZZZ=           -290.2999 XXXY=           -144.6795
 XXXZ=             71.8665 YYYX=            -84.1147 YYYZ=             74.3762 ZZZX=             12.7464
 ZZZY=             12.9519 XXYY=           -704.2281 XXZZ=           -478.8765 YYZZ=           -365.1739
 XXYZ=             50.9917 YYXZ=             41.4490 ZZXY=            -18.1592
 N-N= 8.324985863347D+02 E-N=-3.279576285787D+03  KE= 6.870958552781D+02
 1\1\GINC-X1-CARBON\FOpt\RB3LYP\6-311++G\C8H14O5\CADD\13-Dec-2022\0\\# 
 opt b3lyp/6-311++g geom=connectivity\\opt tc\\0,1\O,5.6749793584,1.460
 2271584,0.1014690121\O,4.9222508296,-1.3291187182,0.2773729867\O,5.496
 2125516,1.8847831234,-2.1512793236\O,8.9195038273,-0.2696280524,-0.034
 8629782\O,4.6461497567,-2.602858351,2.1618103546\C,4.1658517525,3.1679
 428879,-0.5677383931\C,2.985272735,-2.7019383946,0.3816554304\C,5.1602
 292029,2.130811416,-0.9921441832\C,6.6037000207,0.3290895084,-0.123279
 415\C,4.2411251427,-2.2384998767,1.0553523006\C,6.1838182923,-0.782447
 9709,0.8084174638\C,8.0108689458,0.8432161296,0.1661188642\C,10.323297
 7706,0.0803937012,0.1020390313\H,3.8519818938,3.745524384,-1.432210603
 5\H,4.5998611312,3.8277821103,0.1835345605\H,3.2214032311,-3.171946152
 5,-0.5738001326\H,2.3317621551,-1.8538634749,0.1741604328\H,6.52565165
 21,0.0181594115,-1.1628245388\H,6.0184952566,-0.4190821205,1.821583512
 8\H,6.9377864782,-1.5669873552,0.8205544471\H,8.0811735345,1.214908387
 8,1.1949947846\H,8.2469239931,1.6605813391,-0.522593611\H,10.610896769
 4,0.8347184948,-0.6368434233\H,10.5382274864,0.4529250357,1.108612116\
 H,3.2970377311,2.6868905097,-0.1156403455\H,2.4720448664,-3.412785258,
 1.0225130843\H,10.8804936348,-0.8347978729,-0.0749714341\\Version=ES64
 L-G09RevD.01\State=1-A\HF=-689.3920341\RMSD=3.429e-09\RMSF=3.275e-06\D
 ipole=0.2507091,0.8898002,0.1566454\Quadrupole=12.9082407,0.347124,-13
 .2553647,1.5243959,2.5884106,7.7404994\PG=C01 [X(C8H14O5)]\\@


 TIME IS NATURE'S WAY OF MAKING SURE EVERYTHING
 DOESN'T HAPPEN AT ONCE.
                     - WOODY ALLEN
 Job cpu time:       0 days  4 hours 12 minutes 54.9 seconds.
 File lengths (MBytes):  RWF=     48 Int=      0 D2E=      0 Chk=      6 Scr=      1
 Normal termination of Gaussian 09 at Tue Dec 13 10:25:51 2022.
