 Entering Gaussian System, Link 0=/home/cadd/g09/g09
 Input=14L.com
 Output=14L.log
 Initial command:
 /home/cadd//g09/l1.exe "/home/cadd/g09/scratch/Gau-32484.inp" -scrdir="/home/cadd/g09/scratch/"
 Entering Link 1 = /home/cadd//g09/l1.exe PID=     32485.
  
 Copyright (c) 1988,1990,1992,1993,1995,1998,2003,2009,2013,
            Gaussian, Inc.  All Rights Reserved.
  
 This is part of the Gaussian(R) 09 program.  It is based on
 the Gaussian(R) 03 system (copyright 2003, Gaussian, Inc.),
 the Gaussian(R) 98 system (copyright 1998, Gaussian, Inc.),
 the Gaussian(R) 94 system (copyright 1995, Gaussian, Inc.),
 the Gaussian 92(TM) system (copyright 1992, Gaussian, Inc.),
 the Gaussian 90(TM) system (copyright 1990, Gaussian, Inc.),
 the Gaussian 88(TM) system (copyright 1988, Gaussian, Inc.),
 the Gaussian 86(TM) system (copyright 1986, Carnegie Mellon
 University), and the Gaussian 82(TM) system (copyright 1983,
 Carnegie Mellon University). Gaussian is a federally registered
 trademark of Gaussian, Inc.
  
 This software contains proprietary and confidential information,
 including trade secrets, belonging to Gaussian, Inc.
  
 This software is provided under written license and may be
 used, copied, transmitted, or stored only in accord with that
 written license.
  
 The following legend is applicable only to US Government
 contracts under FAR:
  
                    RESTRICTED RIGHTS LEGEND
  
 Use, reproduction and disclosure by the US Government is
 subject to restrictions as set forth in subparagraphs (a)
 and (c) of the Commercial Computer Software - Restricted
 Rights clause in FAR 52.227-19.
  
 Gaussian, Inc.
 340 Quinnipiac St., Bldg. 40, Wallingford CT 06492
  
  
 ---------------------------------------------------------------
 Warning -- This program may not be used in any manner that
 competes with the business of Gaussian, Inc. or will provide
 assistance to any competitor of Gaussian, Inc.  The licensee
 of this program is prohibited from giving any competitor of
 Gaussian, Inc. access to this program.  By using this program,
 the user acknowledges that Gaussian, Inc. is engaged in the
 business of creating and licensing software in the field of
 computational chemistry and represents and warrants to the
 licensee that it is not a competitor of Gaussian, Inc. and that
 it will not use this program in any manner prohibited above.
 ---------------------------------------------------------------
  

 Cite this work as:
 Gaussian 09, Revision D.01,
 M. J. Frisch, G. W. Trucks, H. B. Schlegel, G. E. Scuseria, 
 M. A. Robb, J. R. Cheeseman, G. Scalmani, V. Barone, B. Mennucci, 
 G. A. Petersson, H. Nakatsuji, M. Caricato, X. Li, H. P. Hratchian, 
 A. F. Izmaylov, J. Bloino, G. Zheng, J. L. Sonnenberg, M. Hada, 
 M. Ehara, K. Toyota, R. Fukuda, J. Hasegawa, M. Ishida, T. Nakajima, 
 Y. Honda, O. Kitao, H. Nakai, T. Vreven, J. A. Montgomery, Jr., 
 J. E. Peralta, F. Ogliaro, M. Bearpark, J. J. Heyd, E. Brothers, 
 K. N. Kudin, V. N. Staroverov, T. Keith, R. Kobayashi, J. Normand, 
 K. Raghavachari, A. Rendell, J. C. Burant, S. S. Iyengar, J. Tomasi, 
 M. Cossi, N. Rega, J. M. Millam, M. Klene, J. E. Knox, J. B. Cross, 
 V. Bakken, C. Adamo, J. Jaramillo, R. Gomperts, R. E. Stratmann, 
 O. Yazyev, A. J. Austin, R. Cammi, C. Pomelli, J. W. Ochterski, 
 R. L. Martin, K. Morokuma, V. G. Zakrzewski, G. A. Voth, 
 P. Salvador, J. J. Dannenberg, S. Dapprich, A. D. Daniels, 
 O. Farkas, J. B. Foresman, J. V. Ortiz, J. Cioslowski, 
 and D. J. Fox, Gaussian, Inc., Wallingford CT, 2013.
 
 ******************************************
 Gaussian 09:  ES64L-G09RevD.01 24-Apr-2013
                13-Dec-2022 
 ******************************************
 %nprocshared=2
 Will use up to    2 processors via shared memory.
 %mem=512MW
 %chk=14L.chk
 --------------------------------------
 # opt b3lyp/6-311++g geom=connectivity
 --------------------------------------
 1/14=-1,18=20,19=15,26=3,38=1,57=2/1,3;
 2/9=110,12=2,17=6,18=5,40=1/2;
 3/5=4,6=6,7=1010,11=2,16=1,25=1,30=1,71=1,74=-5/1,2,3;
 4//1;
 5/5=2,38=5/2;
 6/7=2,8=2,9=2,10=2,28=1/1;
 7//1,2,3,16;
 1/14=-1,18=20,19=15,26=3/3(2);
 2/9=110/2;
 99//99;
 2/9=110/2;
 3/5=4,6=6,7=1010,11=2,16=1,25=1,30=1,71=1,74=-5/1,2,3;
 4/5=5,16=3,69=1/1;
 5/5=2,38=5/2;
 7//1,2,3,16;
 1/14=-1,18=20,19=15,26=3/3(-5);
 2/9=110/2;
 6/7=2,8=2,9=2,10=2,19=2,28=1/1;
 99/9=1/99;
 -------------------
 Title Card Required
 -------------------
 Symbolic Z-matrix:
 Charge =  0 Multiplicity = 1
 O(PDBName=O1)         5.196    -1.742     0.233 
 O(PDBName=O2)         4.131    -1.441     2.185 
 C(PDBName=C1)        -3.338    -1.8       0.255 
 C(PDBName=C2)        -4.537    -2.405    -0.444 
 C(PDBName=C3)        -2.044    -2.408    -0.243 
 C(PDBName=C4)        -5.831    -1.845     0.108 
 C(PDBName=C5)        -0.848    -1.761     0.421 
 C(PDBName=C6)        -7.032    -2.408    -0.62 
 C(PDBName=C7)         0.444    -2.43      0.005 
 C(PDBName=C8)        -8.323    -1.874    -0.04 
 C(PDBName=C9)         1.634    -1.746     0.643 
 C(PDBName=C10)       -9.526    -2.396    -0.796 
 C(PDBName=C11)       -10.817   -1.865    -0.209 
 C(PDBName=C12)        2.924    -2.458     0.295 
 C(PDBName=C13)       -12.017   -2.352    -0.98 
 C(PDBName=C14)        4.078    -1.833     1.019 
 C(PDBName=C15)        6.346    -1.068     0.75 
 H(PDBName=H1)        -3.324    -0.689     0.086 
 H(PDBName=H2)        -3.427    -1.963     1.362 
 H(PDBName=H3)        -4.476    -2.197    -1.544 
 H(PDBName=H4)        -4.526    -3.52     -0.316 
 H(PDBName=H5)        -2.042    -3.51     -0.033 
 H(PDBName=H6)        -1.971    -2.283    -1.356 
 H(PDBName=H7)        -5.907    -2.086     1.202 
 H(PDBName=H8)        -5.826    -0.724     0.018 
 H(PDBName=H9)        -0.813    -0.669     0.153 
 H(PDBName=H10)       -0.958    -1.822     1.536 
 H(PDBName=H11)       -6.969    -2.143    -1.709 
 H(PDBName=H12)       -7.023    -3.528    -0.552 
 H(PDBName=H13)        0.422    -3.511     0.307 
 H(PDBName=H14)        0.544    -2.401    -1.112 
 H(PDBName=H15)       -8.401    -2.17      1.04 
 H(PDBName=H16)       -8.316    -0.75     -0.074 
 H(PDBName=H17)        1.686    -0.678     0.296 
 H(PDBName=H18)        1.511    -1.725     1.759 
 H(PDBName=H19)       -9.452    -2.095    -1.874 
 H(PDBName=H20)       -9.533    -3.518    -0.766 
 H(PDBName=H21)       -10.9     -2.189     0.862 
 H(PDBName=H22)       -10.794   -0.742    -0.213 
 H(PDBName=H23)        2.874    -3.535     0.607 
 H(PDBName=H24)        3.107    -2.428    -0.811 
 H(PDBName=H25)       -12.956   -1.952    -0.527 
 H(PDBName=H26)       -12.066   -3.467    -0.969 
 H(PDBName=H27)       -11.966   -2.014    -2.043 
 H(PDBName=H28)        6.207    -0.768     1.82 
 H(PDBName=H29)        7.197    -1.794     0.642 
 H(PDBName=H30)        6.547    -0.182     0.148 
 

 GradGradGradGradGradGradGradGradGradGradGradGradGradGradGradGradGradGrad
 Berny optimization.
 Initialization pass.
                           ----------------------------
                           !    Initial Parameters    !
                           ! (Angstroms and Degrees)  !
 --------------------------                            --------------------------
 ! Name  Definition              Value          Derivative Info.                !
 --------------------------------------------------------------------------------
 ! R1    R(1,16)                 1.3697         estimate D2E/DX2                !
 ! R2    R(1,17)                 1.4297         estimate D2E/DX2                !
 ! R3    R(2,16)                 1.2313         estimate D2E/DX2                !
 ! R4    R(3,4)                  1.514          estimate D2E/DX2                !
 ! R5    R(3,5)                  1.514          estimate D2E/DX2                !
 ! R6    R(3,18)                 1.1239         estimate D2E/DX2                !
 ! R7    R(3,19)                 1.1225         estimate D2E/DX2                !
 ! R8    R(4,6)                  1.5142         estimate D2E/DX2                !
 ! R9    R(4,20)                 1.1212         estimate D2E/DX2                !
 ! R10   R(4,21)                 1.1224         estimate D2E/DX2                !
 ! R11   R(5,7)                  1.5132         estimate D2E/DX2                !
 ! R12   R(5,22)                 1.1218         estimate D2E/DX2                !
 ! R13   R(5,23)                 1.1224         estimate D2E/DX2                !
 ! R14   R(6,8)                  1.5131         estimate D2E/DX2                !
 ! R15   R(6,24)                 1.1228         estimate D2E/DX2                !
 ! R16   R(6,25)                 1.1246         estimate D2E/DX2                !
 ! R17   R(7,9)                  1.5132         estimate D2E/DX2                !
 ! R18   R(7,26)                 1.125          estimate D2E/DX2                !
 ! R19   R(7,27)                 1.1221         estimate D2E/DX2                !
 ! R20   R(8,10)                 1.5127         estimate D2E/DX2                !
 ! R21   R(8,28)                 1.1225         estimate D2E/DX2                !
 ! R22   R(8,29)                 1.1221         estimate D2E/DX2                !
 ! R23   R(9,11)                 1.5136         estimate D2E/DX2                !
 ! R24   R(9,30)                 1.1226         estimate D2E/DX2                !
 ! R25   R(9,31)                 1.1218         estimate D2E/DX2                !
 ! R26   R(10,12)                1.5137         estimate D2E/DX2                !
 ! R27   R(10,32)                1.1225         estimate D2E/DX2                !
 ! R28   R(10,33)                1.1245         estimate D2E/DX2                !
 ! R29   R(11,14)                1.514          estimate D2E/DX2                !
 ! R30   R(11,34)                1.1242         estimate D2E/DX2                !
 ! R31   R(11,35)                1.123          estimate D2E/DX2                !
 ! R32   R(12,13)                1.5143         estimate D2E/DX2                !
 ! R33   R(12,36)                1.1217         estimate D2E/DX2                !
 ! R34   R(12,37)                1.1224         estimate D2E/DX2                !
 ! R35   R(13,15)                1.5072         estimate D2E/DX2                !
 ! R36   R(13,38)                1.122          estimate D2E/DX2                !
 ! R37   R(13,39)                1.1232         estimate D2E/DX2                !
 ! R38   R(14,16)                1.4988         estimate D2E/DX2                !
 ! R39   R(14,40)                1.1224         estimate D2E/DX2                !
 ! R40   R(14,41)                1.1214         estimate D2E/DX2                !
 ! R41   R(15,42)                1.1167         estimate D2E/DX2                !
 ! R42   R(15,43)                1.1161         estimate D2E/DX2                !
 ! R43   R(15,44)                1.1166         estimate D2E/DX2                !
 ! R44   R(17,45)                1.1199         estimate D2E/DX2                !
 ! R45   R(17,46)                1.1238         estimate D2E/DX2                !
 ! R46   R(17,47)                1.0899         estimate D2E/DX2                !
 ! A1    A(16,1,17)            118.7095         estimate D2E/DX2                !
 ! A2    A(4,3,5)              111.3787         estimate D2E/DX2                !
 ! A3    A(4,3,18)             109.6008         estimate D2E/DX2                !
 ! A4    A(4,3,19)             109.5424         estimate D2E/DX2                !
 ! A5    A(5,3,18)             109.6872         estimate D2E/DX2                !
 ! A6    A(5,3,19)             109.5029         estimate D2E/DX2                !
 ! A7    A(18,3,19)            107.0282         estimate D2E/DX2                !
 ! A8    A(3,4,6)              111.1421         estimate D2E/DX2                !
 ! A9    A(3,4,20)             109.6184         estimate D2E/DX2                !
 ! A10   A(3,4,21)             109.6675         estimate D2E/DX2                !
 ! A11   A(6,4,20)             109.6065         estimate D2E/DX2                !
 ! A12   A(6,4,21)             109.5243         estimate D2E/DX2                !
 ! A13   A(20,4,21)            107.1973         estimate D2E/DX2                !
 ! A14   A(3,5,7)              111.0683         estimate D2E/DX2                !
 ! A15   A(3,5,22)             109.5386         estimate D2E/DX2                !
 ! A16   A(3,5,23)             109.6975         estimate D2E/DX2                !
 ! A17   A(7,5,22)             109.6608         estimate D2E/DX2                !
 ! A18   A(7,5,23)             109.6397         estimate D2E/DX2                !
 ! A19   A(22,5,23)            107.1525         estimate D2E/DX2                !
 ! A20   A(4,6,8)              111.4271         estimate D2E/DX2                !
 ! A21   A(4,6,24)             109.4913         estimate D2E/DX2                !
 ! A22   A(4,6,25)             109.6135         estimate D2E/DX2                !
 ! A23   A(8,6,24)             109.5851         estimate D2E/DX2                !
 ! A24   A(8,6,25)             109.6285         estimate D2E/DX2                !
 ! A25   A(24,6,25)            106.9912         estimate D2E/DX2                !
 ! A26   A(5,7,9)              111.417          estimate D2E/DX2                !
 ! A27   A(5,7,26)             109.578          estimate D2E/DX2                !
 ! A28   A(5,7,27)             109.5909         estimate D2E/DX2                !
 ! A29   A(9,7,26)             109.6999         estimate D2E/DX2                !
 ! A30   A(9,7,27)             109.4413         estimate D2E/DX2                !
 ! A31   A(26,7,27)            107.0108         estimate D2E/DX2                !
 ! A32   A(6,8,10)             111.198          estimate D2E/DX2                !
 ! A33   A(6,8,28)             109.5347         estimate D2E/DX2                !
 ! A34   A(6,8,29)             109.6257         estimate D2E/DX2                !
 ! A35   A(10,8,28)            109.6653         estimate D2E/DX2                !
 ! A36   A(10,8,29)            109.6311         estimate D2E/DX2                !
 ! A37   A(28,8,29)            107.0957         estimate D2E/DX2                !
 ! A38   A(7,9,11)             110.8301         estimate D2E/DX2                !
 ! A39   A(7,9,30)             109.5741         estimate D2E/DX2                !
 ! A40   A(7,9,31)             109.7794         estimate D2E/DX2                !
 ! A41   A(11,9,30)            109.7043         estimate D2E/DX2                !
 ! A42   A(11,9,31)            109.7507         estimate D2E/DX2                !
 ! A43   A(30,9,31)            107.1272         estimate D2E/DX2                !
 ! A44   A(8,10,12)            111.4101         estimate D2E/DX2                !
 ! A45   A(8,10,32)            109.5791         estimate D2E/DX2                !
 ! A46   A(8,10,33)            109.6297         estimate D2E/DX2                !
 ! A47   A(12,10,32)           109.5336         estimate D2E/DX2                !
 ! A48   A(12,10,33)           109.5444         estimate D2E/DX2                !
 ! A49   A(32,10,33)           107.0426         estimate D2E/DX2                !
 ! A50   A(9,11,14)            111.1297         estimate D2E/DX2                !
 ! A51   A(9,11,34)            109.608          estimate D2E/DX2                !
 ! A52   A(9,11,35)            109.9522         estimate D2E/DX2                !
 ! A53   A(14,11,34)           109.6591         estimate D2E/DX2                !
 ! A54   A(14,11,35)           109.3025         estimate D2E/DX2                !
 ! A55   A(34,11,35)           107.1014         estimate D2E/DX2                !
 ! A56   A(10,12,13)           111.2857         estimate D2E/DX2                !
 ! A57   A(10,12,36)           109.574          estimate D2E/DX2                !
 ! A58   A(10,12,37)           109.6536         estimate D2E/DX2                !
 ! A59   A(13,12,36)           109.5532         estimate D2E/DX2                !
 ! A60   A(13,12,37)           109.5628         estimate D2E/DX2                !
 ! A61   A(36,12,37)           107.1183         estimate D2E/DX2                !
 ! A62   A(12,13,15)           111.5413         estimate D2E/DX2                !
 ! A63   A(12,13,38)           109.379          estimate D2E/DX2                !
 ! A64   A(12,13,39)           109.3742         estimate D2E/DX2                !
 ! A65   A(15,13,38)           109.6388         estimate D2E/DX2                !
 ! A66   A(15,13,39)           109.7265         estimate D2E/DX2                !
 ! A67   A(38,13,39)           107.0748         estimate D2E/DX2                !
 ! A68   A(11,14,16)           110.4195         estimate D2E/DX2                !
 ! A69   A(11,14,40)           110.4512         estimate D2E/DX2                !
 ! A70   A(11,14,41)           110.6803         estimate D2E/DX2                !
 ! A71   A(16,14,40)           107.4665         estimate D2E/DX2                !
 ! A72   A(16,14,41)           109.8523         estimate D2E/DX2                !
 ! A73   A(40,14,41)           107.8839         estimate D2E/DX2                !
 ! A74   A(13,15,42)           110.2579         estimate D2E/DX2                !
 ! A75   A(13,15,43)           110.6528         estimate D2E/DX2                !
 ! A76   A(13,15,44)           110.6597         estimate D2E/DX2                !
 ! A77   A(42,15,43)           108.4776         estimate D2E/DX2                !
 ! A78   A(42,15,44)           108.4317         estimate D2E/DX2                !
 ! A79   A(43,15,44)           108.2874         estimate D2E/DX2                !
 ! A80   A(1,16,2)             119.1535         estimate D2E/DX2                !
 ! A81   A(1,16,14)            112.2696         estimate D2E/DX2                !
 ! A82   A(2,16,14)            128.5599         estimate D2E/DX2                !
 ! A83   A(1,17,45)            111.8355         estimate D2E/DX2                !
 ! A84   A(1,17,46)            105.6523         estimate D2E/DX2                !
 ! A85   A(1,17,47)            109.3809         estimate D2E/DX2                !
 ! A86   A(45,17,46)           111.0301         estimate D2E/DX2                !
 ! A87   A(45,17,47)           109.4426         estimate D2E/DX2                !
 ! A88   A(46,17,47)           109.4169         estimate D2E/DX2                !
 ! D1    D(17,1,16,2)           -6.4124         estimate D2E/DX2                !
 ! D2    D(17,1,16,14)         174.9611         estimate D2E/DX2                !
 ! D3    D(16,1,17,45)           5.4493         estimate D2E/DX2                !
 ! D4    D(16,1,17,46)         126.3633         estimate D2E/DX2                !
 ! D5    D(16,1,17,47)        -115.9559         estimate D2E/DX2                !
 ! D6    D(5,3,4,6)            177.077          estimate D2E/DX2                !
 ! D7    D(5,3,4,20)           -61.6049         estimate D2E/DX2                !
 ! D8    D(5,3,4,21)            55.8291         estimate D2E/DX2                !
 ! D9    D(18,3,4,6)           -61.3602         estimate D2E/DX2                !
 ! D10   D(18,3,4,20)           59.9579         estimate D2E/DX2                !
 ! D11   D(18,3,4,21)          177.392          estimate D2E/DX2                !
 ! D12   D(19,3,4,6)            55.7855         estimate D2E/DX2                !
 ! D13   D(19,3,4,20)          177.1037         estimate D2E/DX2                !
 ! D14   D(19,3,4,21)          -65.4623         estimate D2E/DX2                !
 ! D15   D(4,3,5,7)            177.8017         estimate D2E/DX2                !
 ! D16   D(4,3,5,22)           -60.9134         estimate D2E/DX2                !
 ! D17   D(4,3,5,23)            56.4372         estimate D2E/DX2                !
 ! D18   D(18,3,5,7)            56.2891         estimate D2E/DX2                !
 ! D19   D(18,3,5,22)          177.574          estimate D2E/DX2                !
 ! D20   D(18,3,5,23)          -65.0754         estimate D2E/DX2                !
 ! D21   D(19,3,5,7)           -60.8838         estimate D2E/DX2                !
 ! D22   D(19,3,5,22)           60.4011         estimate D2E/DX2                !
 ! D23   D(19,3,5,23)          177.7516         estimate D2E/DX2                !
 ! D24   D(3,4,6,8)            177.9478         estimate D2E/DX2                !
 ! D25   D(3,4,6,24)           -60.6603         estimate D2E/DX2                !
 ! D26   D(3,4,6,25)            56.4183         estimate D2E/DX2                !
 ! D27   D(20,4,6,8)            56.6227         estimate D2E/DX2                !
 ! D28   D(20,4,6,24)          178.0146         estimate D2E/DX2                !
 ! D29   D(20,4,6,25)          -64.9067         estimate D2E/DX2                !
 ! D30   D(21,4,6,8)           -60.7206         estimate D2E/DX2                !
 ! D31   D(21,4,6,24)           60.6713         estimate D2E/DX2                !
 ! D32   D(21,4,6,25)          177.75           estimate D2E/DX2                !
 ! D33   D(3,5,7,9)            175.8646         estimate D2E/DX2                !
 ! D34   D(3,5,7,26)           -62.5468         estimate D2E/DX2                !
 ! D35   D(3,5,7,27)            54.5928         estimate D2E/DX2                !
 ! D36   D(22,5,7,9)            54.6513         estimate D2E/DX2                !
 ! D37   D(22,5,7,26)          176.2399         estimate D2E/DX2                !
 ! D38   D(22,5,7,27)          -66.6204         estimate D2E/DX2                !
 ! D39   D(23,5,7,9)           -62.737          estimate D2E/DX2                !
 ! D40   D(23,5,7,26)           58.8516         estimate D2E/DX2                !
 ! D41   D(23,5,7,27)          175.9912         estimate D2E/DX2                !
 ! D42   D(4,6,8,10)           178.4632         estimate D2E/DX2                !
 ! D43   D(4,6,8,28)           -60.1646         estimate D2E/DX2                !
 ! D44   D(4,6,8,29)            57.0728         estimate D2E/DX2                !
 ! D45   D(24,6,8,10)           57.1258         estimate D2E/DX2                !
 ! D46   D(24,6,8,28)          178.4981         estimate D2E/DX2                !
 ! D47   D(24,6,8,29)          -64.2645         estimate D2E/DX2                !
 ! D48   D(25,6,8,10)          -60.0162         estimate D2E/DX2                !
 ! D49   D(25,6,8,28)           61.3561         estimate D2E/DX2                !
 ! D50   D(25,6,8,29)          178.5935         estimate D2E/DX2                !
 ! D51   D(5,7,9,11)           178.2587         estimate D2E/DX2                !
 ! D52   D(5,7,9,30)           -60.5326         estimate D2E/DX2                !
 ! D53   D(5,7,9,31)            56.8561         estimate D2E/DX2                !
 ! D54   D(26,7,9,11)           56.741          estimate D2E/DX2                !
 ! D55   D(26,7,9,30)          177.9497         estimate D2E/DX2                !
 ! D56   D(26,7,9,31)          -64.6617         estimate D2E/DX2                !
 ! D57   D(27,7,9,11)          -60.3824         estimate D2E/DX2                !
 ! D58   D(27,7,9,30)           60.8262         estimate D2E/DX2                !
 ! D59   D(27,7,9,31)          178.2149         estimate D2E/DX2                !
 ! D60   D(6,8,10,12)          177.9937         estimate D2E/DX2                !
 ! D61   D(6,8,10,32)          -60.6309         estimate D2E/DX2                !
 ! D62   D(6,8,10,33)           56.5706         estimate D2E/DX2                !
 ! D63   D(28,8,10,12)          56.6979         estimate D2E/DX2                !
 ! D64   D(28,8,10,32)         178.0733         estimate D2E/DX2                !
 ! D65   D(28,8,10,33)         -64.7253         estimate D2E/DX2                !
 ! D66   D(29,8,10,12)         -60.6191         estimate D2E/DX2                !
 ! D67   D(29,8,10,32)          60.7563         estimate D2E/DX2                !
 ! D68   D(29,8,10,33)         177.9578         estimate D2E/DX2                !
 ! D69   D(7,9,11,14)          176.7527         estimate D2E/DX2                !
 ! D70   D(7,9,11,34)          -61.8781         estimate D2E/DX2                !
 ! D71   D(7,9,11,35)           55.6009         estimate D2E/DX2                !
 ! D72   D(30,9,11,14)          55.6209         estimate D2E/DX2                !
 ! D73   D(30,9,11,34)         176.9901         estimate D2E/DX2                !
 ! D74   D(30,9,11,35)         -65.5309         estimate D2E/DX2                !
 ! D75   D(31,9,11,14)         -61.8277         estimate D2E/DX2                !
 ! D76   D(31,9,11,34)          59.5415         estimate D2E/DX2                !
 ! D77   D(31,9,11,35)         177.0205         estimate D2E/DX2                !
 ! D78   D(8,10,12,13)         179.7288         estimate D2E/DX2                !
 ! D79   D(8,10,12,36)         -58.956          estimate D2E/DX2                !
 ! D80   D(8,10,12,37)          58.348          estimate D2E/DX2                !
 ! D81   D(32,10,12,13)         58.327          estimate D2E/DX2                !
 ! D82   D(32,10,12,36)        179.6421         estimate D2E/DX2                !
 ! D83   D(32,10,12,37)        -63.0538         estimate D2E/DX2                !
 ! D84   D(33,10,12,13)        -58.7984         estimate D2E/DX2                !
 ! D85   D(33,10,12,36)         62.5168         estimate D2E/DX2                !
 ! D86   D(33,10,12,37)        179.8209         estimate D2E/DX2                !
 ! D87   D(9,11,14,16)        -175.6157         estimate D2E/DX2                !
 ! D88   D(9,11,14,40)         -56.888          estimate D2E/DX2                !
 ! D89   D(9,11,14,41)          62.5239         estimate D2E/DX2                !
 ! D90   D(34,11,14,16)         63.0451         estimate D2E/DX2                !
 ! D91   D(34,11,14,40)       -178.2272         estimate D2E/DX2                !
 ! D92   D(34,11,14,41)        -58.8153         estimate D2E/DX2                !
 ! D93   D(35,11,14,16)        -54.0834         estimate D2E/DX2                !
 ! D94   D(35,11,14,40)         64.6443         estimate D2E/DX2                !
 ! D95   D(35,11,14,41)       -175.9438         estimate D2E/DX2                !
 ! D96   D(10,12,13,15)        178.491          estimate D2E/DX2                !
 ! D97   D(10,12,13,38)        -60.0509         estimate D2E/DX2                !
 ! D98   D(10,12,13,39)         56.9258         estimate D2E/DX2                !
 ! D99   D(36,12,13,15)         57.1637         estimate D2E/DX2                !
 ! D100  D(36,12,13,38)        178.6218         estimate D2E/DX2                !
 ! D101  D(36,12,13,39)        -64.4015         estimate D2E/DX2                !
 ! D102  D(37,12,13,15)        -60.0752         estimate D2E/DX2                !
 ! D103  D(37,12,13,38)         61.3829         estimate D2E/DX2                !
 ! D104  D(37,12,13,39)        178.3595         estimate D2E/DX2                !
 ! D105  D(12,13,15,42)        179.7539         estimate D2E/DX2                !
 ! D106  D(12,13,15,43)         59.7442         estimate D2E/DX2                !
 ! D107  D(12,13,15,44)        -60.2892         estimate D2E/DX2                !
 ! D108  D(38,13,15,42)         58.4467         estimate D2E/DX2                !
 ! D109  D(38,13,15,43)        -61.563          estimate D2E/DX2                !
 ! D110  D(38,13,15,44)        178.4036         estimate D2E/DX2                !
 ! D111  D(39,13,15,42)        -58.8853         estimate D2E/DX2                !
 ! D112  D(39,13,15,43)       -178.895          estimate D2E/DX2                !
 ! D113  D(39,13,15,44)         61.0716         estimate D2E/DX2                !
 ! D114  D(11,14,16,1)        -139.9565         estimate D2E/DX2                !
 ! D115  D(11,14,16,2)          41.5775         estimate D2E/DX2                !
 ! D116  D(40,14,16,1)          99.5127         estimate D2E/DX2                !
 ! D117  D(40,14,16,2)         -78.9533         estimate D2E/DX2                !
 ! D118  D(41,14,16,1)         -17.6089         estimate D2E/DX2                !
 ! D119  D(41,14,16,2)         163.9251         estimate D2E/DX2                !
 --------------------------------------------------------------------------------
 Trust Radius=3.00D-01 FncErr=1.00D-07 GrdErr=1.00D-06
 Number of steps in this run=    263 maximum allowed number of steps=    282.
 GradGradGradGradGradGradGradGradGradGradGradGradGradGradGradGradGradGrad

                          Input orientation:                          
 ---------------------------------------------------------------------
 Center     Atomic      Atomic             Coordinates (Angstroms)
 Number     Number       Type             X           Y           Z
 ---------------------------------------------------------------------
      1          8           0        5.196000   -1.742000    0.233000
      2          8           0        4.131000   -1.441000    2.185000
      3          6           0       -3.338000   -1.800000    0.255000
      4          6           0       -4.537000   -2.405000   -0.444000
      5          6           0       -2.044000   -2.408000   -0.243000
      6          6           0       -5.831000   -1.845000    0.108000
      7          6           0       -0.848000   -1.761000    0.421000
      8          6           0       -7.032000   -2.408000   -0.620000
      9          6           0        0.444000   -2.430000    0.005000
     10          6           0       -8.323000   -1.874000   -0.040000
     11          6           0        1.634000   -1.746000    0.643000
     12          6           0       -9.526000   -2.396000   -0.796000
     13          6           0      -10.817000   -1.865000   -0.209000
     14          6           0        2.924000   -2.458000    0.295000
     15          6           0      -12.017000   -2.352000   -0.980000
     16          6           0        4.078000   -1.833000    1.019000
     17          6           0        6.346000   -1.068000    0.750000
     18          1           0       -3.324000   -0.689000    0.086000
     19          1           0       -3.427000   -1.963000    1.362000
     20          1           0       -4.476000   -2.197000   -1.544000
     21          1           0       -4.526000   -3.520000   -0.316000
     22          1           0       -2.042000   -3.510000   -0.033000
     23          1           0       -1.971000   -2.283000   -1.356000
     24          1           0       -5.907000   -2.086000    1.202000
     25          1           0       -5.826000   -0.724000    0.018000
     26          1           0       -0.813000   -0.669000    0.153000
     27          1           0       -0.958000   -1.822000    1.536000
     28          1           0       -6.969000   -2.143000   -1.709000
     29          1           0       -7.023000   -3.528000   -0.552000
     30          1           0        0.422000   -3.511000    0.307000
     31          1           0        0.544000   -2.401000   -1.112000
     32          1           0       -8.401000   -2.170000    1.040000
     33          1           0       -8.316000   -0.750000   -0.074000
     34          1           0        1.686000   -0.678000    0.296000
     35          1           0        1.511000   -1.725000    1.759000
     36          1           0       -9.452000   -2.095000   -1.874000
     37          1           0       -9.533000   -3.518000   -0.766000
     38          1           0      -10.900000   -2.189000    0.862000
     39          1           0      -10.794000   -0.742000   -0.213000
     40          1           0        2.874000   -3.535000    0.607000
     41          1           0        3.107000   -2.428000   -0.811000
     42          1           0      -12.956000   -1.952000   -0.527000
     43          1           0      -12.066000   -3.467000   -0.969000
     44          1           0      -11.966000   -2.014000   -2.043000
     45          1           0        6.207000   -0.768000    1.820000
     46          1           0        7.197000   -1.794000    0.642000
     47          1           0        6.547000   -0.182000    0.148000
 ---------------------------------------------------------------------
                    Distance matrix (angstroms):
                    1          2          3          4          5
     1  O    0.000000
     2  O    2.243910   0.000000
     3  C    8.534225   7.722677   0.000000
     4  C    9.779018   9.109070   1.514010   0.000000
     5  C    7.286133   6.705289   1.513970   2.501092   0.000000
     6  C   11.028189  10.184232   2.497736   1.514180   3.844677
     7  C    6.046953   5.291931   2.495832   3.843395   1.513248
     8  C   12.275795  11.550571   3.844597   2.501202   5.002227
     9  C    4.806957   4.395963   3.842255   5.001259   2.500426
    10  C   13.522400  12.658603   4.994269   3.844343   6.304935
    11  C    3.585521   2.950559   4.987409   6.300563   3.840693
    12  C   14.772401  14.011140   6.304852   5.001410   7.502418
    13  C   16.019571  15.144429   7.493661   6.307553   8.789854
    14  C    2.382957   2.462364   6.296603   7.497696   4.997296
    15  C   17.266466  16.480444   8.783790   7.499367  10.000352
    16  C    1.369672   1.231271   7.455323   8.757042   6.277113
    17  C    1.429708   2.665442   9.724233  11.029637   8.554166
    18  H    8.586083   7.781281   1.123867   2.167239   2.168318
    19  H    8.699403   7.620576   1.122470   2.165433   2.164888
    20  H    9.844406   9.410496   2.165422   1.121153   2.766179
    21  H    9.898483   9.247751   2.166976   1.122377   2.720698
    22  H    7.455550   6.877951   2.164870   2.759524   1.121832
    23  H    7.360944   7.105072   2.167325   2.725983   1.122374
    24  H   11.150511  10.106620   2.752883   2.165174   4.136965
    25  H   11.071000  10.215274   2.721046   2.168116   4.148192
    26  H    6.104573   5.400754   2.768608   4.151901   2.167094
    27  H    6.290940   5.144345   2.702933   4.131529   2.165094
    28  H   12.325558  11.784144   4.142355   2.753814   5.145387
    29  H   12.373762  11.672980   4.149272   2.730016   5.112761
    30  H    5.091750   4.644186   4.131322   5.136041   2.756858
    31  H    4.887168   4.965720   4.159305   5.124724   2.730010
    32  H   13.627650  12.605296   5.136837   4.145839   6.489544
    33  H   13.551843  12.669190   5.098159   4.142073   6.489646
    34  H    3.668265   3.182533   5.147926   6.500451   4.146845
    35  H    3.988507   2.669557   5.077444   6.472551   4.136728
    36  H   14.802971  14.191585   6.480792   5.128180   7.591877
    37  H   14.869284  14.132488   6.509377   5.128593   7.588857
    38  H   16.114486  15.107640   7.596289   6.499235   8.927358
    39  H   16.027446  15.132569   7.545219   6.478347   8.907242
    40  H    2.957433   2.907743   6.459340   7.569968   5.116576
    41  H    2.434020   3.316438   6.562680   7.652840   5.182261
    42  H   18.169117  17.308427   9.650935   8.431587  10.925216
    43  H   17.389568  16.625138   8.969674   7.621634  10.103912
    44  H   17.314399  16.652859   8.931348   7.609187  10.091646
    45  H    2.118812   2.212675   9.727347  11.101306   8.661672
    46  H    2.043034   3.450480  10.542107  11.799978   9.303564
    47  H    2.065436   3.401692  10.017115  11.320214   8.883312
                    6          7          8          9         10
     6  C    0.000000
     7  C    4.993527   0.000000
     8  C    1.513061   6.304296   0.000000
     9  C    6.303052   1.513235   7.502112   0.000000
    10  C    2.496559   7.490054   1.512692   8.784728   0.000000
    11  C    7.484801   2.491954   8.782538   1.513605   9.981218
    12  C    3.843676   8.785898   2.500231  10.002183   1.513681
    13  C    4.996107   9.989428   3.845776  11.277196   2.499736
    14  C    8.778426   3.837925   9.998083   2.497055  11.267133
    15  C    6.301380  11.272029   4.998296  12.500113   3.841578
    16  C    9.950796   4.962687  11.244956   3.819759  12.446203
    17  C   12.218642   7.234786  13.514562   6.102759  14.712352
    18  H    2.760773   2.718821   4.147609   4.151562   5.139076
    19  H    2.713974   2.752731   4.137919   4.128460   5.093559
    20  H    2.165418   4.148940   2.726065   5.163341   4.143157
    21  H    2.165277   4.143059   2.758441   5.098239   4.147614
    22  H    4.141090   2.165815   5.143838   2.710727   6.490571
    23  H    4.151474   2.165951   5.115764   2.775996   6.499772
    24  H    1.122806   5.129236   2.165408   6.471966   2.724805
    25  H    1.124618   5.100810   2.167334   6.497962   2.749704
    26  H    5.154156   1.124950   6.503661   2.168657   7.608507
    27  H    5.077976   1.122072   6.471878   2.163153   7.531912
    28  H    2.164564   6.492262   1.122548   7.613983   2.165927
    29  H    2.165399   6.496125   1.122098   7.567823   2.165147
    30  H    6.474192   2.165270   7.591973   1.122608   8.903662
    31  H    6.514458   2.167338   7.591962   1.121842   8.947100
    32  H    2.753025   7.589351   2.164811   8.909144   1.122542
    33  H    2.721649   7.552362   2.166965   8.919991   1.124536
    34  H    7.609371   2.758563   8.935070   2.167198  10.085802
    35  H    7.526298   2.712272   8.894323   2.170721   9.998308
    36  H    4.135513   8.911083   2.743517  10.078377   2.164957
    37  H    4.155431   8.940092   2.740149  10.065720   2.166544
    38  H    5.136303  10.070768   4.147976  11.378878   2.748410
    39  H    5.094214  10.018145   4.134471  11.366156   2.723453
    40  H    8.881561   4.127342  10.045123   2.736481  11.338004
    41  H    9.004015   4.195800  10.140819   2.785216  11.469362
    42  H    7.154041  12.146557   5.942252  13.419073   4.659178
    43  H    6.531925  11.431800   5.156010  12.590637   4.172618
    44  H    6.503352  11.390576   5.150196  12.584731   4.159694
    45  H   12.206732   7.260597  13.561501   6.266469  14.690260
    46  H   13.039039   8.048103  14.298045   6.812729  15.535183
    47  H   12.489278   7.566624  13.781660   6.505426  14.967134
                   11         12         13         14         15
    11  C    0.000000
    12  C   11.271150   0.000000
    13  C   12.480684   1.514335   0.000000
    14  C    1.513984  12.497865  13.763021   0.000000
    15  C   13.760493   2.498174   1.507186  14.995677   0.000000
    16  C    2.474284  13.736084  14.945569   1.498839  16.226965
    17  C    4.761730  16.002315  17.208238   3.721453  18.488951
    18  H    5.099928   6.492810   7.590458   6.496964   8.914605
    19  H    5.116422   6.484000   7.555776   6.459003   8.912036
    20  H    6.505265   5.108973   6.488508   7.629551   7.563650
    21  H    6.481694   5.147211   6.505932   7.550077   7.610532
    22  H    4.132995   7.604829   8.929593   5.086791  10.086545
    23  H    4.156969   7.576569   8.929840   5.168893  10.053271
    24  H    7.569330   4.145511   5.113498   8.885246   6.493380
    25  H    7.555575   4.141036   5.124792   8.924460   6.478802
    26  H    2.718058   8.933057  10.081740   4.145582  11.386211
    27  H    2.742570   8.898220  10.012330   4.124864  11.353970
    28  H    8.927548   2.726871   4.139370  10.098846   5.104647
    29  H    8.918924   2.757892   4.156640  10.040175   5.148417
    30  H    2.167271  10.070876  11.370607   2.714582  12.558996
    31  H    2.167291  10.074958  11.409427   2.765375  12.561789
    32  H   10.051796   2.165086   2.736801  11.353131   4.145959
    33  H   10.025398   2.166726   2.741615  11.375018   4.133357
    34  H    1.124161  11.395303  12.569368   2.168189  13.863717
    35  H    1.122954  11.348728  12.484879   2.162673  13.816730
    36  H   11.373499   1.121678   2.165260  12.569873   2.728463
    37  H   11.394172   1.122423   2.165944  12.546959   2.752382
    38  H   12.543738   2.163259   1.122010  13.838238   2.160375
    39  H   12.497837   2.164123   1.123243  13.834242   2.162433
    40  H    2.177020  12.530991  13.816593   1.122396  15.021982
    41  H    2.179213  12.633049  13.948374   1.121439  15.125135
    42  H   14.638287   3.469063   2.164258  15.909309   1.116660
    43  H   13.901453   2.761987   2.168872  15.076998   1.116130
    44  H   13.865296   2.766683   2.169322  15.078975   1.116608
    45  H    4.822255  16.031879  17.179547   3.994974  18.505762
    46  H    5.563207  16.795505  18.034230   4.338183  19.290413
    47  H    5.179642  16.252208  17.449024   4.281111  18.724406
                   16         17         18         19         20
    16  C    0.000000
    17  C    2.408612   0.000000
    18  H    7.547770   9.700177   0.000000
    19  H    7.513959   9.832960   1.806062   0.000000
    20  H    8.937135  11.119926   2.501613   3.098386   0.000000
    21  H    8.868879  11.195939   3.101769   2.539239   1.805772
    22  H    6.432218   8.771260   3.100923   2.501491   3.151420
    23  H    6.514102   8.665100   2.539844   3.099977   2.513516
    24  H    9.989881  12.303521   3.141489   2.488198   3.098483
    25  H   10.016042  12.198842   2.503169   3.016067   2.536153
    26  H    5.101640   7.194921   2.511973   3.157390   4.316499
    27  H    5.062480   7.384763   2.997356   2.479137   4.690773
    28  H   11.383070  13.582766   4.315341   4.691397   2.499038
    29  H   11.339015  13.655657   4.706333   4.363924   3.040203
    30  H    4.085213   6.423260   4.695215   4.280669   5.398444
    31  H    4.165686   6.237559   4.396313   4.699081   5.042682
    32  H   12.483567  14.790961   5.373956   4.988708   4.699299
    33  H   12.489146  14.688579   4.994936   5.237918   4.358934
    34  H    2.752893   4.698278   5.014411   5.378694   6.607814
    35  H    2.673715   4.982665   5.220101   4.959647   6.853960
    36  H   13.838316  16.047333   6.585653   6.840303   4.987974
    37  H   13.830574  16.138259   6.876105   6.650537   5.284276
    38  H   14.983053  17.282757   7.761955   7.493117   6.859787
    39  H   14.962770  17.170127   7.476169   7.631786   6.618588
    40  H    2.125127   4.261610   6.840056   6.537875   7.774287
    41  H    2.155404   3.844144   6.722090   6.901544   7.621846
    42  H   17.104427  19.364385   9.733774   9.714437   8.544280
    43  H   16.347808  18.647035   9.233248   9.073472   7.716970
    44  H   16.334581  18.547914   8.998468   9.192994   7.508834
    45  H    2.511666   1.119920   9.687774   9.718629  11.290927
    46  H    3.141944   1.123806  10.593470  10.649711  11.882758
    47  H    3.095223   1.089863   9.884206  10.204236  11.332679
                   21         22         23         24         25
    21  H    0.000000
    22  H    2.500089   0.000000
    23  H    3.023209   1.805796   0.000000
    24  H    2.503566   4.300143   4.698326   0.000000
    25  H    3.101479   4.699261   4.379427   1.806505   0.000000
    26  H    4.704735   3.101019   2.494602   5.390466   5.015119
    27  H    4.363912   2.546794   3.098767   4.967278   5.216067
    28  H    3.131266   5.380799   5.012406   3.099196   2.510486
    29  H    2.508141   5.007998   5.264897   2.530086   3.101633
    30  H    4.987075   2.487347   3.162278   6.548885   6.847510
    31  H    5.252683   3.013556   2.529562   6.860701   6.683272
    32  H    4.321673   6.586639   6.862834   2.500667   3.125064
    33  H    4.700592   6.854368   6.652266   3.035845   2.491835
    34  H    6.858604   4.693234   4.321895   7.775407   7.517283
    35  H    6.631215   4.361341   4.705201   7.447637   7.606882
    36  H    5.359428   7.765282   7.501268   4.693494   4.313604
    37  H    5.027181   7.526781   7.684866   4.367096   4.707753
    38  H    6.617184   9.000568   9.200837   5.005623   5.348274
    39  H    6.856801   9.181053   9.029200   5.262255   4.973400
    40  H    7.457356   4.957548   5.375397   8.919618   9.161803
    41  H    7.726589   5.318666   5.109220   9.242366   9.131777
    42  H    8.577182  11.035706  11.021208   7.259187   7.255474
    43  H    7.568409  10.067697  10.171561   6.674855   6.887367
    44  H    7.784868  10.235423  10.022193   6.873623   6.603894
    45  H   11.284205   8.888092   8.902914  12.201149  12.167261
    46  H   11.888043   9.421221   9.395922  13.119210  13.081774
    47  H   11.574492   9.212994   8.901266  12.642715  12.385548
                   26         27         28         29         30
    26  H    0.000000
    27  H    1.806412   0.000000
    28  H    6.598186   6.838508   0.000000
    29  H    6.872773   6.637349   1.805489   0.000000
    30  H    3.102564   2.503510   7.782195   7.494411   0.000000
    31  H    2.538011   3.098895   7.541097   7.670933   1.805698
    32  H    7.785725   7.467621   3.099735   2.505496   8.954379
    33  H    7.506870   7.607986   2.535366   3.101228   9.171746
    34  H    2.503104   3.136411   9.004181   9.202624   3.102210
    35  H    3.015849   2.480947   9.171268   9.023341   2.546374
    36  H    8.987465   9.157001   2.488939   3.114677  10.210666
    37  H    9.219532   9.039151   3.058426   2.519126  10.012662
    38  H   10.225490   9.971576   4.697331   4.338600  11.412423
    39  H    9.987975  10.048497   4.339521   4.700761  11.564446
    40  H    4.691912   4.299027  10.207163   9.964634   2.470401
    41  H    4.403382   4.732850  10.119951  10.192840   3.103552
    42  H   12.229511  12.174764   6.105553   6.138802  13.494329
    43  H   11.649794  11.505160   5.317893   5.060579  12.553097
    44  H   11.446434  11.576794   5.009811   5.380383  12.697482
    45  H    7.215891   7.247675  13.709538  13.721402   6.578711
    46  H    8.103385   8.203904  14.364002  14.375006   6.997209
    47  H    7.376096   7.806482  13.783186  13.993949   6.973030
                   31         32         33         34         35
    31  H    0.000000
    32  H    9.203124   0.000000
    33  H    9.072092   1.806826   0.000000
    34  H    2.501071  10.223853  10.009100   0.000000
    35  H    3.103982   9.948001  10.043926   1.807541   0.000000
    36  H   10.029671   3.098648   2.517841  11.435551  11.555213
    37  H   10.144621   2.521937   3.101899  11.621506  11.469979
    38  H   11.614937   2.505403   3.102237  12.689006  12.452021
    39  H   11.493943   3.055428   2.481908  12.490539  12.500724
    40  H    3.109633  11.365577  11.551454   3.109745   2.541844
    41  H    2.580756  11.658766  11.569087   2.511412   3.105853
    42  H   13.520127   4.821933   4.814521  14.720345  14.648256
    43  H   12.655785   4.376130   4.716526  14.088870  13.957488
    44  H   12.550563   4.715766   4.335569  13.915205  14.006008
    45  H    6.582772  14.695838  14.645992   4.771804   4.792910
    46  H    6.907052  15.607607  15.564567   5.633497   5.795088
    47  H    6.522850  15.105976  14.875506   4.888480   5.507946
                   36         37         38         39         40
    36  H    0.000000
    37  H    1.805313   0.000000
    38  H    3.096972   2.507053   0.000000
    39  H    2.527943   3.098727   1.805733   0.000000
    40  H   12.655403  12.482751  13.841959  13.974529   0.000000
    41  H   12.608304  12.686990  14.108582  14.015634   1.813963
    42  H    3.756711   3.771791   2.492514   2.497387  15.949318
    43  H    3.087783   2.541633   2.519008   3.100830  15.023049
    44  H    2.520976   3.132449   3.099356   2.518029  15.151288
    45  H   16.143446  16.186337  17.192628  17.122143   4.498505
    46  H   16.840726  16.877427  18.102647  18.042001   4.660540
    47  H   16.239337  16.447817  17.576565  17.353795   4.994419
                   41         42         43         44         45
    41  H    0.000000
    42  H   16.072560   0.000000
    43  H   15.209353   1.811819   0.000000
    44  H   15.128931   1.811684   1.809609   0.000000
    45  H    4.391783  19.342462  18.680622  18.620774   0.000000
    46  H    4.386487  20.187494  19.402511  19.351439   1.849449
    47  H    4.218744  19.594783  18.933639  18.732001   1.804045
                   46         47
    46  H    0.000000
    47  H    1.806953   0.000000
 Stoichiometry    C15H30O2
 Framework group  C1[X(C15H30O2)]
 Deg. of freedom   135
 Full point group                 C1      NOp   1
 Largest Abelian subgroup         C1      NOp   1
 Largest concise Abelian subgroup C1      NOp   1
                         Standard orientation:                         
 ---------------------------------------------------------------------
 Center     Atomic      Atomic             Coordinates (Angstroms)
 Number     Number       Type             X           Y           Z
 ---------------------------------------------------------------------
      1          8           0       -7.602796   -0.538808    0.329322
      2          8           0       -6.740591    1.349705   -0.522295
      3          6           0        0.886704    0.294042    0.069043
      4          6           0        2.167680   -0.499605   -0.077421
      5          6           0       -0.331444   -0.582082   -0.132515
      6          6           0        3.382364    0.394781    0.054320
      7          6           0       -1.607575    0.206030    0.068206
      8          6           0        4.666616   -0.399531   -0.041175
      9          6           0       -2.829415   -0.635608   -0.229509
     10          6           0        5.876559    0.503415    0.053509
     11          6           0       -4.098401    0.151965    0.016264
     12          6           0        7.164027   -0.291284    0.007597
     13          6           0        8.373406    0.615805    0.095916
     14          6           0       -5.323230   -0.656859   -0.354876
     15          6           0        9.658086   -0.172318    0.087527
     16          6           0       -6.562538    0.172989   -0.206596
     17          6           0       -8.820070    0.146992    0.632620
     18          1           0        0.849635    0.765266    1.088677
     19          1           0        0.875183    1.129950   -0.679999
     20          1           0        2.204795   -1.302124    0.704609
     21          1           0        2.183941   -1.009476   -1.077169
     22          1           0       -0.314529   -1.015969   -1.166906
     23          1           0       -0.302088   -1.442325    0.587792
     24          1           0        3.361912    1.175622   -0.752254
     25          1           0        3.346342    0.937849    1.038467
     26          1           0       -1.655399    0.582690    1.127146
     27          1           0       -1.602579    1.106890   -0.600728
     28          1           0        4.698674   -1.161707    0.782339
     29          1           0        4.690779   -0.961660   -1.012016
     30          1           0       -2.798163   -0.979329   -1.297745
     31          1           0       -2.823141   -1.554777    0.413623
     32          1           0        5.861380    1.242531   -0.791226
     33          1           0        5.833088    1.094325    1.009290
     34          1           0       -4.154736    0.448267    1.099209
     35          1           0       -4.083468    1.100157   -0.585179
     36          1           0        7.182817   -1.025590    0.855302
     37          1           0        7.207809   -0.884405   -0.944308
     38          1           0        8.365052    1.332524   -0.767305
     39          1           0        8.311186    1.229427    1.034677
     40          1           0       -5.265221   -0.987313   -1.425954
     41          1           0       -5.400611   -1.574599    0.284961
     42          1           0       10.534742    0.516624    0.148872
     43          1           0        9.745219   -0.773150   -0.849038
     44          1           0        9.697013   -0.871515    0.957252
     45          1           0       -8.794692    1.212507    0.288740
     46          1           0       -9.630634   -0.427202    0.107046
     47          1           0       -8.993814    0.116936    1.708125
 ---------------------------------------------------------------------
 Rotational constants (GHZ):      3.6370356      0.0607412      0.0603043
 Standard basis: 6-311++G (5D, 7F)
 There are   409 symmetry adapted cartesian basis functions of A   symmetry.
 There are   409 symmetry adapted basis functions of A   symmetry.
   409 basis functions,   690 primitive gaussians,   409 cartesian basis functions
    68 alpha electrons       68 beta electrons
       nuclear repulsion energy      1106.7229072542 Hartrees.
 NAtoms=   47 NActive=   47 NUniq=   47 SFac= 1.00D+00 NAtFMM=   60 NAOKFM=F Big=F
 Integral buffers will be    131072 words long.
 Raffenetti 2 integral format.
 Two-electron integral symmetry is turned on.
 One-electron integrals computed using PRISM.
 NBasis=   409 RedAO= T EigKep=  2.24D-06  NBF=   409
 NBsUse=   408 1.00D-06 EigRej=  4.25D-07 NBFU=   408
 ExpMin= 3.60D-02 ExpMax= 8.59D+03 ExpMxC= 1.30D+03 IAcc=3 IRadAn=         5 AccDes= 0.00D+00
 Harris functional with IExCor=  402 and IRadAn=       5 diagonalized for initial guess.
 HarFok:  IExCor=  402 AccDes= 0.00D+00 IRadAn=         5 IDoV= 1 UseB2=F ITyADJ=14
 ICtDFT=  3500011 ScaDFX=  1.000000  1.000000  1.000000  1.000000
 FoFCou: FMM=F IPFlag=           0 FMFlag=      100000 FMFlg1=           0
         NFxFlg=           0 DoJE=T BraDBF=F KetDBF=T FulRan=T
         wScrn=  0.000000 ICntrl=     500 IOpCl=  0 I1Cent=   200000004 NGrid=           0
         NMat0=    1 NMatS0=      1 NMatT0=    0 NMatD0=    1 NMtDS0=    0 NMtDT0=    0
 Petite list used in FoFCou.
 Requested convergence on RMS density matrix=1.00D-08 within 128 cycles.
 Requested convergence on MAX density matrix=1.00D-06.
 Requested convergence on             energy=1.00D-06.
 No special actions if energy rises.
 SCF Done:  E(RB3LYP) =  -740.104181658     A.U. after   14 cycles
            NFock= 14  Conv=0.56D-08     -V/T= 2.0043

 **********************************************************************

            Population analysis using the SCF density.

 **********************************************************************

 Orbital symmetries:
       Occupied  (A) (A) (A) (A) (A) (A) (A) (A) (A) (A) (A) (A)
                 (A) (A) (A) (A) (A) (A) (A) (A) (A) (A) (A) (A)
                 (A) (A) (A) (A) (A) (A) (A) (A) (A) (A) (A) (A)
                 (A) (A) (A) (A) (A) (A) (A) (A) (A) (A) (A) (A)
                 (A) (A) (A) (A) (A) (A) (A) (A) (A) (A) (A) (A)
                 (A) (A) (A) (A) (A) (A) (A) (A)
       Virtual   (A) (A) (A) (A) (A) (A) (A) (A) (A) (A) (A) (A)
                 (A) (A) (A) (A) (A) (A) (A) (A) (A) (A) (A) (A)
                 (A) (A) (A) (A) (A) (A) (A) (A) (A) (A) (A) (A)
                 (A) (A) (A) (A) (A) (A) (A) (A) (A) (A) (A) (A)
                 (A) (A) (A) (A) (A) (A) (A) (A) (A) (A) (A) (A)
                 (A) (A) (A) (A) (A) (A) (A) (A) (A) (A) (A) (A)
                 (A) (A) (A) (A) (A) (A) (A) (A) (A) (A) (A) (A)
                 (A) (A) (A) (A) (A) (A) (A) (A) (A) (A) (A) (A)
                 (A) (A) (A) (A) (A) (A) (A) (A) (A) (A) (A) (A)
                 (A) (A) (A) (A) (A) (A) (A) (A) (A) (A) (A) (A)
                 (A) (A) (A) (A) (A) (A) (A) (A) (A) (A) (A) (A)
                 (A) (A) (A) (A) (A) (A) (A) (A) (A) (A) (A) (A)
                 (A) (A) (A) (A) (A) (A) (A) (A) (A) (A) (A) (A)
                 (A) (A) (A) (A) (A) (A) (A) (A) (A) (A) (A) (A)
                 (A) (A) (A) (A) (A) (A) (A) (A) (A) (A) (A) (A)
                 (A) (A) (A) (A) (A) (A) (A) (A) (A) (A) (A) (A)
                 (A) (A) (A) (A) (A) (A) (A) (A) (A) (A) (A) (A)
                 (A) (A) (A) (A) (A) (A) (A) (A) (A) (A) (A) (A)
                 (A) (A) (A) (A) (A) (A) (A) (A) (A) (A) (A) (A)
                 (A) (A) (A) (A) (A) (A) (A) (A) (A) (A) (A) (A)
                 (A) (A) (A) (A) (A) (A) (A) (A) (A) (A) (A) (A)
                 (A) (A) (A) (A) (A) (A) (A) (A) (A) (A) (A) (A)
                 (A) (A) (A) (A) (A) (A) (A) (A) (A) (A) (A) (A)
                 (A) (A) (A) (A) (A) (A) (A) (A) (A) (A) (A) (A)
                 (A) (A) (A) (A) (A) (A) (A) (A) (A) (A) (A) (A)
                 (A) (A) (A) (A) (A) (A) (A) (A) (A) (A) (A) (A)
                 (A) (A) (A) (A) (A) (A) (A) (A) (A) (A) (A) (A)
                 (A) (A) (A) (A) (A) (A) (A) (A) (A) (A) (A) (A)
                 (A) (A) (A) (A)
 The electronic state is 1-A.
 Alpha  occ. eigenvalues --  -19.17345 -19.12508 -10.32242 -10.23227 -10.19928
 Alpha  occ. eigenvalues --  -10.18072 -10.17522 -10.17090 -10.16890 -10.16811
 Alpha  occ. eigenvalues --  -10.16762 -10.16672 -10.16641 -10.16631 -10.16610
 Alpha  occ. eigenvalues --  -10.16595 -10.16266  -1.12419  -1.03253  -0.83399
 Alpha  occ. eigenvalues --   -0.82419  -0.80932  -0.78857  -0.76364  -0.73899
 Alpha  occ. eigenvalues --   -0.71399  -0.68058  -0.64159  -0.60526  -0.58514
 Alpha  occ. eigenvalues --   -0.58058  -0.57341  -0.56979  -0.56305  -0.51304
 Alpha  occ. eigenvalues --   -0.50307  -0.49514  -0.48662  -0.47845  -0.47155
 Alpha  occ. eigenvalues --   -0.45536  -0.44458  -0.44057  -0.43618  -0.43098
 Alpha  occ. eigenvalues --   -0.41998  -0.41325  -0.40869  -0.39617  -0.38776
 Alpha  occ. eigenvalues --   -0.37436  -0.37391  -0.36648  -0.35419  -0.35247
 Alpha  occ. eigenvalues --   -0.34918  -0.34201  -0.33722  -0.33556  -0.33248
 Alpha  occ. eigenvalues --   -0.32923  -0.32622  -0.32458  -0.32175  -0.32102
 Alpha  occ. eigenvalues --   -0.30388  -0.29212  -0.28534
 Alpha virt. eigenvalues --   -0.01988  -0.00989  -0.00604  -0.00163   0.00021
 Alpha virt. eigenvalues --    0.00120   0.00634   0.00916   0.01124   0.01727
 Alpha virt. eigenvalues --    0.02256   0.02608   0.03059   0.03524   0.03938
 Alpha virt. eigenvalues --    0.03963   0.04482   0.04681   0.04937   0.05148
 Alpha virt. eigenvalues --    0.05311   0.05828   0.06329   0.06446   0.06892
 Alpha virt. eigenvalues --    0.06944   0.07641   0.08035   0.08405   0.08786
 Alpha virt. eigenvalues --    0.09462   0.09832   0.09943   0.10379   0.10505
 Alpha virt. eigenvalues --    0.10999   0.11451   0.11590   0.11809   0.11930
 Alpha virt. eigenvalues --    0.12106   0.12161   0.12232   0.12464   0.12683
 Alpha virt. eigenvalues --    0.12740   0.12969   0.13094   0.13380   0.13452
 Alpha virt. eigenvalues --    0.13830   0.14184   0.14237   0.14500   0.14659
 Alpha virt. eigenvalues --    0.14911   0.14959   0.15090   0.15191   0.15519
 Alpha virt. eigenvalues --    0.15619   0.15957   0.16084   0.16217   0.16382
 Alpha virt. eigenvalues --    0.16725   0.16839   0.17143   0.17181   0.17454
 Alpha virt. eigenvalues --    0.17506   0.17886   0.18110   0.18503   0.18692
 Alpha virt. eigenvalues --    0.18991   0.19425   0.19601   0.19747   0.20004
 Alpha virt. eigenvalues --    0.20141   0.20819   0.21073   0.21391   0.21756
 Alpha virt. eigenvalues --    0.21932   0.22110   0.22409   0.22561   0.23314
 Alpha virt. eigenvalues --    0.23415   0.23823   0.24284   0.24579   0.24886
 Alpha virt. eigenvalues --    0.25019   0.25145   0.25354   0.25985   0.26140
 Alpha virt. eigenvalues --    0.26425   0.26714   0.26858   0.26983   0.27902
 Alpha virt. eigenvalues --    0.28166   0.28855   0.29255   0.30026   0.30234
 Alpha virt. eigenvalues --    0.30519   0.30824   0.31319   0.31592   0.31826
 Alpha virt. eigenvalues --    0.32324   0.32608   0.32848   0.32932   0.33342
 Alpha virt. eigenvalues --    0.33463   0.33487   0.33714   0.34222   0.34402
 Alpha virt. eigenvalues --    0.34498   0.35293   0.35479   0.36328   0.36779
 Alpha virt. eigenvalues --    0.37085   0.38509   0.39169   0.39329   0.39571
 Alpha virt. eigenvalues --    0.40283   0.40582   0.40722   0.41318   0.41554
 Alpha virt. eigenvalues --    0.42041   0.42999   0.44378   0.45409   0.45458
 Alpha virt. eigenvalues --    0.45824   0.46688   0.46846   0.47309   0.47465
 Alpha virt. eigenvalues --    0.48495   0.48552   0.49273   0.50934   0.51764
 Alpha virt. eigenvalues --    0.52573   0.52833   0.54778   0.57214   0.57713
 Alpha virt. eigenvalues --    0.58724   0.59033   0.60260   0.61044   0.61743
 Alpha virt. eigenvalues --    0.62266   0.63244   0.63890   0.64496   0.64572
 Alpha virt. eigenvalues --    0.64895   0.65129   0.65407   0.66291   0.66962
 Alpha virt. eigenvalues --    0.67001   0.67862   0.68310   0.68470   0.68828
 Alpha virt. eigenvalues --    0.69224   0.69324   0.69604   0.70144   0.70452
 Alpha virt. eigenvalues --    0.70838   0.70991   0.71249   0.71569   0.71666
 Alpha virt. eigenvalues --    0.72197   0.72264   0.72893   0.73521   0.73729
 Alpha virt. eigenvalues --    0.74010   0.74248   0.74557   0.74617   0.74944
 Alpha virt. eigenvalues --    0.75336   0.75398   0.75636   0.75817   0.76833
 Alpha virt. eigenvalues --    0.77144   0.77568   0.77797   0.78313   0.78603
 Alpha virt. eigenvalues --    0.79389   0.79741   0.81209   0.84222   0.85455
 Alpha virt. eigenvalues --    0.88853   0.90283   0.90644   0.95516   0.96143
 Alpha virt. eigenvalues --    0.99610   1.02076   1.03332   1.03983   1.06546
 Alpha virt. eigenvalues --    1.08102   1.09479   1.10007   1.10382   1.11158
 Alpha virt. eigenvalues --    1.11568   1.11677   1.14280   1.17235   1.19200
 Alpha virt. eigenvalues --    1.25083   1.25529   1.28157   1.30953   1.33686
 Alpha virt. eigenvalues --    1.63338   1.71986   2.36036   2.36586   2.38804
 Alpha virt. eigenvalues --    2.42839   2.43163   2.43250   2.43555   2.43942
 Alpha virt. eigenvalues --    2.44955   2.46168   2.46681   2.46980   2.50267
 Alpha virt. eigenvalues --    2.51007   2.52125   2.53652   2.54516   2.54786
 Alpha virt. eigenvalues --    2.56384   2.57257   2.57624   2.57854   2.59230
 Alpha virt. eigenvalues --    2.59738   2.60807   2.61170   2.61952   2.62764
 Alpha virt. eigenvalues --    2.62885   2.65535   2.70433   2.85161   2.86069
 Alpha virt. eigenvalues --    2.89270   2.90135   2.92305   2.93639   2.93931
 Alpha virt. eigenvalues --    2.94246   2.94641   2.95072   2.95415   2.95560
 Alpha virt. eigenvalues --    2.95922   2.96252   2.96601   2.96718   2.97266
 Alpha virt. eigenvalues --    2.97784   2.97870   2.98514   2.99081   2.99912
 Alpha virt. eigenvalues --    3.00228   3.00538   3.02754   3.04164   3.04872
 Alpha virt. eigenvalues --    3.06918   3.07622   3.07801   3.08409   3.09605
 Alpha virt. eigenvalues --    3.10341   3.12871   3.14282   3.14989   3.19606
 Alpha virt. eigenvalues --    3.19828   3.20113   3.26172   3.26594   3.29510
 Alpha virt. eigenvalues --    3.39055   3.44850   5.00279   5.03814   5.05232
 Alpha virt. eigenvalues --    5.11864   5.18961   5.22248  23.32301  23.35937
 Alpha virt. eigenvalues --   23.40302  23.43780  23.46887  23.48941  23.51383
 Alpha virt. eigenvalues --   23.54143  23.56865  23.59157  23.60517  23.62993
 Alpha virt. eigenvalues --   23.68059  23.73781  23.76486  49.84213  49.92624
          Condensed to atoms (all electrons):
               1          2          3          4          5          6
     1  O    9.312941  -0.279061  -0.000150  -0.000009   0.005990  -0.000001
     2  O   -0.279061   8.481481  -0.000409   0.000001  -0.001147   0.000002
     3  C   -0.000150  -0.000409  10.456172  -2.095539  -0.572207   0.120420
     4  C   -0.000009   0.000001  -2.095539   9.807511  -0.246708  -1.475631
     5  C    0.005990  -0.001147  -0.572207  -0.246708  10.399715   0.547923
     6  C   -0.000001   0.000002   0.120420  -1.475631   0.547923   9.116521
     7  C   -0.006911  -0.009317  -0.080685   0.407668  -2.284403  -0.479672
     8  C    0.000000   0.000000  -0.173289   0.186047  -0.695269  -1.807922
     9  C    0.086123   0.100471  -0.223230  -0.316605   0.504312   0.227087
    10  C    0.000000   0.000000  -0.319894  -0.412401   0.101921   0.246901
    11  C    0.142760  -0.198330  -1.297183   0.440672  -1.096440  -0.003841
    12  C    0.000000   0.000000   0.082233  -0.559845  -0.039548  -0.421938
    13  C    0.000000   0.000000  -0.003868  -0.044075  -0.000361  -0.214704
    14  C   -1.159238   0.386134  -0.083845   0.019263  -0.872243   0.011272
    15  C    0.000000   0.000000   0.000673  -0.019859   0.000081  -0.024529
    16  C    0.005924  -0.078819  -0.119515   0.025617   0.100934  -0.000376
    17  C    0.181554  -0.103864  -0.000567   0.000041   0.006120  -0.000009
    18  H    0.000014   0.000003   0.418906  -0.083630  -0.052355   0.002620
    19  H   -0.000005   0.000079   0.452204  -0.063423  -0.041776   0.040261
    20  H   -0.000004   0.000000  -0.102804   0.400633   0.027055  -0.022202
    21  H    0.000005  -0.000001  -0.010429   0.496818   0.023288  -0.104817
    22  H   -0.000547  -0.000141  -0.148720  -0.003230   0.291938   0.016191
    23  H    0.000396   0.000026  -0.036913   0.048293   0.492854  -0.017279
    24  H    0.000000  -0.000001  -0.003326  -0.127662   0.001893   0.413255
    25  H    0.000000   0.000000   0.062405  -0.021493  -0.023468   0.448381
    26  H   -0.001633  -0.000273   0.004145  -0.005818  -0.168188   0.002593
    27  H    0.001347  -0.000912   0.030018   0.027041  -0.001624  -0.024240
    28  H    0.000000   0.000000  -0.001334  -0.018771  -0.000864  -0.116323
    29  H    0.000000   0.000000  -0.000305   0.057230  -0.009311  -0.039136
    30  H    0.011219   0.000551   0.049509  -0.026366   0.057633   0.002674
    31  H   -0.006330  -0.000418  -0.009668   0.003526   0.047464  -0.002522
    32  H    0.000000   0.000000  -0.000232  -0.012129   0.000036   0.009525
    33  H    0.000000   0.000000  -0.009998   0.019428   0.002151   0.041834
    34  H    0.030841  -0.001046   0.002700  -0.003906  -0.009903   0.001712
    35  H   -0.032899   0.000854   0.001887  -0.001852  -0.016646   0.000955
    36  H    0.000000   0.000000   0.000648  -0.005608  -0.000126  -0.005840
    37  H    0.000000   0.000000  -0.000604   0.000325   0.000521  -0.012428
    38  H    0.000000   0.000000   0.000336  -0.000827   0.000007   0.005780
    39  H    0.000000   0.000000   0.000309  -0.000858  -0.000030  -0.004982
    40  H    0.034094   0.003273  -0.018352   0.005641   0.004079  -0.000358
    41  H   -0.044174   0.002155   0.005903  -0.001554   0.007964   0.000004
    42  H    0.000000   0.000000   0.000053  -0.000683  -0.000008  -0.001650
    43  H    0.000000   0.000000  -0.000063   0.000477   0.000007  -0.001922
    44  H    0.000000   0.000000  -0.000034   0.000418   0.000012  -0.000412
    45  H   -0.097695   0.035764  -0.000041   0.000012  -0.000785   0.000002
    46  H   -0.074524  -0.007962   0.000041  -0.000007   0.000223   0.000000
    47  H   -0.046292   0.000206  -0.000123   0.000020   0.000006   0.000000
               7          8          9         10         11         12
     1  O   -0.006911   0.000000   0.086123   0.000000   0.142760   0.000000
     2  O   -0.009317   0.000000   0.100471   0.000000  -0.198330   0.000000
     3  C   -0.080685  -0.173289  -0.223230  -0.319894  -1.297183   0.082233
     4  C    0.407668   0.186047  -0.316605  -0.412401   0.440672  -0.559845
     5  C   -2.284403  -0.695269   0.504312   0.101921  -1.096440  -0.039548
     6  C   -0.479672  -1.807922   0.227087   0.246901  -0.003841  -0.421938
     7  C   11.811029   0.522563  -0.982159   0.033985  -0.759217   0.029085
     8  C    0.522563   9.113798   0.002356  -0.886380   0.056735   0.176988
     9  C   -0.982159   0.002356  10.439813   0.017872  -2.009594   0.001573
    10  C    0.033985  -0.886380   0.017872   8.205755   0.004765  -1.197735
    11  C   -0.759217   0.056735  -2.009594   0.004765  12.899473   0.000991
    12  C    0.029085   0.176988   0.001573  -1.197735   0.000991   9.067856
    13  C    0.001923  -0.402868   0.000153   0.454843   0.000038  -1.796455
    14  C   -0.925083   0.002789  -1.118366   0.000421  -3.491746   0.000034
    15  C    0.000168  -0.121100   0.000011  -0.340379   0.000002   0.466086
    16  C   -1.429421   0.000918  -0.964617   0.000022   0.742487   0.000005
    17  C   -0.006063   0.000000   0.049589   0.000000   0.095947   0.000000
    18  H    0.044228  -0.006729  -0.018567   0.004198  -0.002599  -0.000367
    19  H   -0.034103  -0.021722   0.007787  -0.007587  -0.015962  -0.003053
    20  H   -0.017165   0.007010   0.013791   0.005317  -0.002848  -0.005274
    21  H   -0.006640  -0.021609  -0.027817  -0.024219  -0.006003  -0.007838
    22  H   -0.048461   0.013631   0.073433   0.004894   0.045295   0.001525
    23  H   -0.110222  -0.005614  -0.045676  -0.001803  -0.001658   0.000107
    24  H    0.000430  -0.050170   0.002992   0.052222   0.000608   0.010688
    25  H   -0.003878  -0.081714  -0.003065  -0.057057   0.000479  -0.012883
    26  H    0.363796   0.002619   0.014035  -0.000568   0.070959   0.000075
    27  H    0.477320   0.002948  -0.185682  -0.000469  -0.021970   0.000181
    28  H    0.001971   0.433080  -0.000325  -0.048160   0.000156   0.042637
    29  H   -0.000834   0.462053   0.000624  -0.122878   0.000207  -0.038544
    30  H   -0.081970  -0.003692   0.443917  -0.000419   0.019562  -0.000132
    31  H   -0.010943   0.000558   0.405333   0.000079  -0.187489   0.000014
    32  H    0.000593  -0.108153  -0.000068   0.449116  -0.000003  -0.050361
    33  H   -0.001485  -0.050803   0.000022   0.452699  -0.000091  -0.132922
    34  H    0.071020  -0.000186  -0.170923   0.000050   0.539522  -0.000001
    35  H    0.004556  -0.000190   0.015173   0.000041   0.314466  -0.000002
    36  H    0.000140  -0.017715   0.000011  -0.085892   0.000003   0.447447
    37  H   -0.000114   0.013888  -0.000021  -0.084946  -0.000007   0.443725
    38  H   -0.000022  -0.018843  -0.000001   0.009830   0.000000  -0.088703
    39  H   -0.000004  -0.014770  -0.000001  -0.015105   0.000000  -0.062904
    40  H   -0.111377   0.000348   0.055432   0.000012  -0.144671   0.000004
    41  H    0.022350  -0.000109   0.120356  -0.000007  -0.081502  -0.000001
    42  H    0.000007  -0.005018   0.000000   0.013870   0.000000   0.044608
    43  H   -0.000003  -0.002961   0.000000  -0.032642   0.000000  -0.010295
    44  H   -0.000005  -0.001373   0.000000  -0.024164   0.000000  -0.017321
    45  H   -0.002588   0.000000  -0.012755   0.000000  -0.038132   0.000000
    46  H    0.001666   0.000000   0.002237   0.000000   0.006431   0.000000
    47  H   -0.003042   0.000000  -0.003067   0.000000   0.004626   0.000000
              13         14         15         16         17         18
     1  O    0.000000  -1.159238   0.000000   0.005924   0.181554   0.000014
     2  O    0.000000   0.386134   0.000000  -0.078819  -0.103864   0.000003
     3  C   -0.003868  -0.083845   0.000673  -0.119515  -0.000567   0.418906
     4  C   -0.044075   0.019263  -0.019859   0.025617   0.000041  -0.083630
     5  C   -0.000361  -0.872243   0.000081   0.100934   0.006120  -0.052355
     6  C   -0.214704   0.011272  -0.024529  -0.000376  -0.000009   0.002620
     7  C    0.001923  -0.925083   0.000168  -1.429421  -0.006063   0.044228
     8  C   -0.402868   0.002789  -0.121100   0.000918   0.000000  -0.006729
     9  C    0.000153  -1.118366   0.000011  -0.964617   0.049589  -0.018567
    10  C    0.454843   0.000421  -0.340379   0.000022   0.000000   0.004198
    11  C    0.000038  -3.491746   0.000002   0.742487   0.095947  -0.002599
    12  C   -1.796455   0.000034   0.466086   0.000005   0.000000  -0.000367
    13  C    8.277986   0.000001  -0.691421   0.000000   0.000000   0.000331
    14  C    0.000001  17.815268   0.000000  -3.872389  -0.696711  -0.001594
    15  C   -0.691421   0.000000   6.550526   0.000000   0.000000   0.000045
    16  C    0.000000  -3.872389   0.000000  11.935959  -0.170475  -0.000263
    17  C    0.000000  -0.696711   0.000000  -0.170475   6.055706   0.000030
    18  H    0.000331  -0.001594   0.000045  -0.000263   0.000030   0.575385
    19  H   -0.000172  -0.004423  -0.000008  -0.002120  -0.000018  -0.080071
    20  H   -0.001856   0.002139  -0.000147  -0.000728  -0.000013  -0.020051
    21  H   -0.002552  -0.004573  -0.000009   0.000718   0.000014   0.009189
    22  H    0.000204   0.066116   0.000014  -0.013253  -0.000590   0.007302
    23  H    0.000076  -0.030342   0.000006   0.013441   0.000484  -0.008186
    24  H    0.001558   0.000509  -0.000485  -0.000005  -0.000001   0.012979
    25  H   -0.004220  -0.000092  -0.000885   0.000075   0.000000  -0.015907
    26  H   -0.000014   0.027820  -0.000001  -0.002744  -0.001525  -0.016843
    27  H    0.000006  -0.041663   0.000000   0.041109   0.001756   0.009468
    28  H    0.008626  -0.000026   0.000984   0.000006   0.000000   0.004606
    29  H   -0.004173   0.000064  -0.003197  -0.000007   0.000000  -0.001035
    30  H   -0.000008  -0.262930  -0.000001   0.085599   0.006071  -0.000483
    31  H    0.000000   0.147252   0.000000  -0.070033  -0.004724   0.001441
    32  H    0.015071  -0.000006   0.003720   0.000000   0.000000  -0.001203
    33  H   -0.013527  -0.000003  -0.005589  -0.000001   0.000000   0.002736
    34  H    0.000000  -0.258074   0.000000   0.083522   0.016372   0.003146
    35  H    0.000000   0.183805   0.000000  -0.148176  -0.021782  -0.001267
    36  H   -0.046483   0.000000   0.018370   0.000000   0.000000  -0.000411
    37  H   -0.066135  -0.000001   0.012360   0.000000   0.000000   0.000210
    38  H    0.426926   0.000000  -0.038776   0.000000   0.000000   0.000026
    39  H    0.430135   0.000000  -0.038830   0.000000   0.000000  -0.000089
    40  H    0.000000   0.294920   0.000000   0.134268   0.013032   0.000065
    41  H    0.000000   0.426163   0.000000  -0.159290  -0.009930  -0.000299
    42  H   -0.068937   0.000000   0.328622   0.000000   0.000000   0.000003
    43  H   -0.052048   0.000000   0.423817   0.000000   0.000000  -0.000008
    44  H   -0.050083   0.000000   0.417883   0.000000   0.000000   0.000008
    45  H    0.000000   0.100403   0.000000   0.070243   0.295612  -0.000003
    46  H    0.000000  -0.044377   0.000000   0.032412   0.397069   0.000000
    47  H    0.000000  -0.001480   0.000000   0.024885   0.360076   0.000000
              19         20         21         22         23         24
     1  O   -0.000005  -0.000004   0.000005  -0.000547   0.000396   0.000000
     2  O    0.000079   0.000000  -0.000001  -0.000141   0.000026  -0.000001
     3  C    0.452204  -0.102804  -0.010429  -0.148720  -0.036913  -0.003326
     4  C   -0.063423   0.400633   0.496818  -0.003230   0.048293  -0.127662
     5  C   -0.041776   0.027055   0.023288   0.291938   0.492854   0.001893
     6  C    0.040261  -0.022202  -0.104817   0.016191  -0.017279   0.413255
     7  C   -0.034103  -0.017165  -0.006640  -0.048461  -0.110222   0.000430
     8  C   -0.021722   0.007010  -0.021609   0.013631  -0.005614  -0.050170
     9  C    0.007787   0.013791  -0.027817   0.073433  -0.045676   0.002992
    10  C   -0.007587   0.005317  -0.024219   0.004894  -0.001803   0.052222
    11  C   -0.015962  -0.002848  -0.006003   0.045295  -0.001658   0.000608
    12  C   -0.003053  -0.005274  -0.007838   0.001525   0.000107   0.010688
    13  C   -0.000172  -0.001856  -0.002552   0.000204   0.000076   0.001558
    14  C   -0.004423   0.002139  -0.004573   0.066116  -0.030342   0.000509
    15  C   -0.000008  -0.000147  -0.000009   0.000014   0.000006  -0.000485
    16  C   -0.002120  -0.000728   0.000718  -0.013253   0.013441  -0.000005
    17  C   -0.000018  -0.000013   0.000014  -0.000590   0.000484  -0.000001
    18  H   -0.080071  -0.020051   0.009189   0.007302  -0.008186   0.012979
    19  H    0.578343   0.008570  -0.007056  -0.020709   0.007230  -0.017319
    20  H    0.008570   0.574825  -0.085074   0.019732  -0.019157   0.009234
    21  H   -0.007056  -0.085074   0.581649  -0.027774   0.017454  -0.020233
    22  H   -0.020709   0.019732  -0.027774   0.604851  -0.093920   0.007008
    23  H    0.007230  -0.019157   0.017454  -0.093920   0.576255  -0.002106
    24  H   -0.017319   0.009234  -0.020233   0.007008  -0.002106   0.570459
    25  H    0.010777  -0.009317   0.008602  -0.002166   0.002667  -0.077056
    26  H    0.013983   0.007223  -0.003571   0.014463  -0.021838  -0.000666
    27  H   -0.021304  -0.002939   0.003416  -0.013615   0.012883   0.003262
    28  H   -0.001247  -0.012824   0.013669  -0.001637   0.002844   0.007115
    29  H    0.001546   0.011908  -0.015823   0.003816  -0.001621  -0.007889
    30  H    0.006181  -0.002481   0.005840  -0.034189   0.021338  -0.000825
    31  H   -0.001832   0.003488  -0.002516   0.020159  -0.020404   0.000432
    32  H    0.002894  -0.001256   0.004784  -0.000637   0.000344  -0.012243
    33  H   -0.000921   0.001882  -0.001062   0.000287  -0.000266   0.010056
    34  H   -0.000329  -0.001151   0.000954  -0.007024   0.009302  -0.000110
    35  H    0.002427   0.000846  -0.000999   0.009131  -0.005788  -0.000036
    36  H    0.000253   0.001664  -0.000749   0.000024  -0.000074  -0.000997
    37  H   -0.000195  -0.000702   0.001751  -0.000118   0.000026   0.002345
    38  H   -0.000079   0.000095  -0.000152   0.000002  -0.000004   0.001149
    39  H    0.000016  -0.000038   0.000046   0.000000  -0.000003  -0.000419
    40  H   -0.000243  -0.000140   0.000045  -0.000103   0.001387  -0.000012
    41  H    0.000194   0.000155  -0.000144   0.001144  -0.000982   0.000005
    42  H    0.000002  -0.000017  -0.000014   0.000001   0.000000  -0.000030
    43  H    0.000004   0.000029  -0.000060   0.000003  -0.000002  -0.000130
    44  H   -0.000007  -0.000046   0.000037  -0.000002   0.000002   0.000129
    45  H    0.000003   0.000001  -0.000001   0.000055  -0.000030   0.000000
    46  H    0.000001   0.000000   0.000000  -0.000009  -0.000002   0.000000
    47  H   -0.000003   0.000000   0.000000   0.000005   0.000013   0.000000
              25         26         27         28         29         30
     1  O    0.000000  -0.001633   0.001347   0.000000   0.000000   0.011219
     2  O    0.000000  -0.000273  -0.000912   0.000000   0.000000   0.000551
     3  C    0.062405   0.004145   0.030018  -0.001334  -0.000305   0.049509
     4  C   -0.021493  -0.005818   0.027041  -0.018771   0.057230  -0.026366
     5  C   -0.023468  -0.168188  -0.001624  -0.000864  -0.009311   0.057633
     6  C    0.448381   0.002593  -0.024240  -0.116323  -0.039136   0.002674
     7  C   -0.003878   0.363796   0.477320   0.001971  -0.000834  -0.081970
     8  C   -0.081714   0.002619   0.002948   0.433080   0.462053  -0.003692
     9  C   -0.003065   0.014035  -0.185682  -0.000325   0.000624   0.443917
    10  C   -0.057057  -0.000568  -0.000469  -0.048160  -0.122878  -0.000419
    11  C    0.000479   0.070959  -0.021970   0.000156   0.000207   0.019562
    12  C   -0.012883   0.000075   0.000181   0.042637  -0.038544  -0.000132
    13  C   -0.004220  -0.000014   0.000006   0.008626  -0.004173  -0.000008
    14  C   -0.000092   0.027820  -0.041663  -0.000026   0.000064  -0.262930
    15  C   -0.000885  -0.000001   0.000000   0.000984  -0.003197  -0.000001
    16  C    0.000075  -0.002744   0.041109   0.000006  -0.000007   0.085599
    17  C    0.000000  -0.001525   0.001756   0.000000   0.000000   0.006071
    18  H   -0.015907  -0.016843   0.009468   0.004606  -0.001035  -0.000483
    19  H    0.010777   0.013983  -0.021304  -0.001247   0.001546   0.006181
    20  H   -0.009317   0.007223  -0.002939  -0.012824   0.011908  -0.002481
    21  H    0.008602  -0.003571   0.003416   0.013669  -0.015823   0.005840
    22  H   -0.002166   0.014463  -0.013615  -0.001637   0.003816  -0.034189
    23  H    0.002667  -0.021838   0.012883   0.002844  -0.001621   0.021338
    24  H   -0.077056  -0.000666   0.003262   0.007115  -0.007889  -0.000825
    25  H    0.569304   0.002429  -0.000427  -0.015402   0.006198   0.000333
    26  H    0.002429   0.561100  -0.073452  -0.000576   0.000366  -0.001043
    27  H   -0.000427  -0.073452   0.576853   0.000373  -0.000292  -0.010567
    28  H   -0.015402  -0.000576   0.000373   0.561935  -0.074080   0.000080
    29  H    0.006198   0.000366  -0.000292  -0.074080   0.562227  -0.000259
    30  H    0.000333  -0.001043  -0.010567   0.000080  -0.000259   0.595677
    31  H   -0.000299  -0.002827   0.004569  -0.000141   0.000092  -0.088496
[...]
     6  C    0.438462  -0.003257  -0.003271  -0.070412  -0.070333  -0.005389
     7  C   -0.010747   0.276856   0.277061  -0.001172  -0.001173  -0.030701
     8  C   -0.061957   0.003165   0.003167   0.438709   0.438702   0.000042
     9  C    0.005359   0.120833   0.120443   0.000736   0.000732   0.399725
    10  C   -0.009505  -0.000440  -0.000439  -0.075434  -0.075441  -0.000210
    11  C   -0.001024  -0.049143  -0.048778   0.000035   0.000035  -0.064843
    12  C   -0.002257   0.000113   0.000113  -0.002820  -0.002882  -0.000020
    13  C   -0.001930   0.000001   0.000001  -0.000793  -0.000814  -0.000002
    14  C    0.000049  -0.095603  -0.095563   0.000051   0.000051  -0.025164
    15  C   -0.000356  -0.000001  -0.000001  -0.001423  -0.001433   0.000000
    16  C    0.000114   0.071343   0.071304  -0.000005  -0.000005  -0.037503
    17  C    0.000000   0.000079   0.000078   0.000000   0.000000   0.000535
    18  H   -0.010562  -0.016982   0.001007   0.002279  -0.000723  -0.001405
    19  H    0.005769   0.001000  -0.016965  -0.000723   0.002278   0.006120
    20  H   -0.019856   0.002762  -0.000988  -0.006840   0.007944  -0.000836
    21  H    0.013037  -0.000992   0.002758   0.007939  -0.006836   0.003106
    22  H   -0.001264   0.011689  -0.013907  -0.000798   0.002320  -0.018929
    23  H    0.003853  -0.013921   0.011677   0.002319  -0.000800   0.011823
    24  H   -0.086684   0.000423   0.003284   0.011677  -0.017603  -0.000625
    25  H    0.583116   0.003283   0.000422  -0.017613   0.011674   0.000215
    26  H    0.003283   0.598032  -0.063611  -0.000330   0.000188   0.013712
    27  H    0.000422  -0.063611   0.597999   0.000188  -0.000330  -0.029400
    28  H   -0.017613  -0.000330   0.000188   0.578364  -0.087363  -0.000023
    29  H    0.011674   0.000188  -0.000330  -0.087363   0.578352  -0.000088
    30  H    0.000215   0.013712  -0.029400  -0.000023  -0.000088   0.627930
    31  H   -0.000625  -0.029411   0.013715  -0.000088  -0.000023  -0.111319
    32  H    0.006254  -0.000079  -0.000130   0.012305  -0.018282   0.000012
    33  H   -0.005123  -0.000130  -0.000078  -0.018265   0.012304   0.000002
    34  H   -0.000214  -0.016594  -0.013236   0.000012   0.000000   0.019518
    35  H   -0.000203  -0.013236  -0.016584   0.000000   0.000012  -0.016249
    36  H    0.002070   0.000008  -0.000003   0.000519   0.004396   0.000000
    37  H   -0.000428  -0.000003   0.000008   0.004395   0.000514   0.000003
    38  H   -0.000424   0.000001   0.000002   0.000493   0.000807   0.000000
    39  H    0.001128   0.000002   0.000001   0.000805   0.000493   0.000000
    40  H    0.000022   0.003252   0.009953   0.000001   0.000001  -0.020496
    41  H    0.000034   0.009956   0.003251   0.000001   0.000001   0.004624
    42  H   -0.000028   0.000000   0.000000   0.000018   0.000018   0.000000
    43  H    0.000100   0.000000   0.000000  -0.000443   0.000894   0.000000
    44  H   -0.000136   0.000000   0.000000   0.000894  -0.000443   0.000000
    45  H    0.000000   0.000286   0.000104   0.000000   0.000000   0.000629
    46  H    0.000000  -0.000059  -0.000059   0.000000   0.000000   0.000063
    47  H    0.000000   0.000104   0.000286   0.000000   0.000000  -0.000523
              31         32         33         34         35         36
     1  O   -0.001473   0.000000   0.000000  -0.033088  -0.033085   0.000000
     2  O    0.004674   0.000000   0.000000   0.005950   0.005948   0.000000
     3  C   -0.029854  -0.004830  -0.004842  -0.017728  -0.017795   0.000821
     4  C    0.010414   0.000577   0.000638   0.003337   0.003360  -0.004905
     5  C    0.086638   0.000470   0.000474  -0.005488  -0.005532  -0.000198
     6  C   -0.005400   0.012763   0.012905   0.000137   0.000134  -0.010594
     7  C   -0.031014   0.000426   0.000422   0.163619   0.163285   0.000085
     8  C    0.000051  -0.083046  -0.082947  -0.000342  -0.000340  -0.012065
     9  C    0.399383  -0.000233  -0.000233  -0.308217  -0.308219  -0.000020
    10  C   -0.000209   0.450069   0.450115   0.000028   0.000028  -0.085764
    11  C   -0.064351   0.000021   0.000021   0.435611   0.435616   0.000000
    12  C   -0.000020  -0.081521  -0.081715  -0.000004  -0.000004   0.448023
    13  C   -0.000002   0.006996   0.006882   0.000000   0.000000  -0.047743
    14  C   -0.024970  -0.000003  -0.000003   0.329448   0.329779   0.000000
    15  C    0.000000  -0.001550  -0.001581   0.000000   0.000000   0.014990
    16  C   -0.037535  -0.000001  -0.000001  -0.289111  -0.289018   0.000000
    17  C    0.000533   0.000000   0.000000   0.000620   0.000630   0.000000
    18  H    0.006121  -0.000389   0.002246   0.003928   0.002241  -0.000211
    19  H   -0.001397   0.002248  -0.000389   0.002242   0.003928   0.000156
    20  H    0.003103  -0.000727   0.002364  -0.000366   0.000201   0.001458
    21  H   -0.000835   0.002367  -0.000726   0.000202  -0.000365  -0.000582
    22  H    0.011811  -0.000329   0.000178  -0.002019   0.002526   0.000003
    23  H   -0.018914   0.000178  -0.000328   0.002525  -0.002014  -0.000072
    24  H    0.000214  -0.005132   0.006251  -0.000203  -0.000214  -0.000429
    25  H   -0.000625   0.006254  -0.005123  -0.000214  -0.000203   0.002070
    26  H   -0.029411  -0.000079  -0.000130  -0.016594  -0.013236   0.000008
    27  H    0.013715  -0.000130  -0.000078  -0.013236  -0.016584  -0.000003
    28  H   -0.000088   0.012305  -0.018265   0.000012   0.000000   0.000519
    29  H   -0.000023  -0.018282   0.012304   0.000000   0.000012   0.004396
    30  H   -0.111319   0.000012   0.000002   0.019518  -0.016249   0.000000
    31  H    0.628024   0.000002   0.000012  -0.016220   0.019519   0.000003
    32  H    0.000002   0.577093  -0.085509   0.000005   0.000006   0.013598
    33  H    0.000012  -0.085509   0.577078   0.000006   0.000005  -0.020004
    34  H   -0.016220   0.000005   0.000006   0.530024  -0.024733   0.000000
    35  H    0.019519   0.000006   0.000005  -0.024733   0.529986   0.000000
    36  H    0.000003   0.013598  -0.020004   0.000000   0.000000   0.567797
    37  H    0.000000  -0.019989   0.013596   0.000000   0.000000  -0.080016
    38  H    0.000000   0.003990   0.001799   0.000000   0.000000   0.008709
    39  H    0.000000   0.001792   0.003991   0.000000   0.000000  -0.013053
    40  H    0.004633   0.000000  -0.000001  -0.015904  -0.026640   0.000000
    41  H   -0.020520  -0.000001   0.000000  -0.026633  -0.015895   0.000000
    42  H    0.000000   0.000295   0.000292   0.000000   0.000000  -0.001294
    43  H    0.000000   0.001239  -0.000295   0.000000   0.000000   0.003268
    44  H    0.000000  -0.000296   0.001242   0.000000   0.000000   0.001046
    45  H   -0.000524   0.000000   0.000000  -0.002695  -0.002391   0.000000
    46  H    0.000064   0.000000   0.000000   0.000632   0.000631   0.000000
    47  H    0.000629   0.000000   0.000000  -0.002391  -0.002693   0.000000
              37         38         39         40         41         42
     1  O    0.000000   0.000000   0.000000   0.042727   0.042739   0.000000
     2  O    0.000000   0.000000   0.000000  -0.031115  -0.031096   0.000000
     3  C    0.000817   0.000181   0.000181   0.008269   0.008271   0.000037
     4  C   -0.004900  -0.000812  -0.000815  -0.001981  -0.001979  -0.000334
     5  C   -0.000197   0.000001   0.000001  -0.015722  -0.015772  -0.000003
     6  C   -0.010580  -0.002293  -0.002316   0.000448   0.000448  -0.000784
     7  C    0.000085  -0.000011  -0.000010  -0.067657  -0.067632   0.000002
     8  C   -0.011936  -0.016596  -0.016603   0.000033   0.000033  -0.002738
     9  C   -0.000020   0.000002   0.000002   0.125022   0.124901   0.000000
    10  C   -0.085708  -0.011505  -0.011472   0.000005   0.000005   0.011184
    11  C    0.000000   0.000000   0.000000  -0.060407  -0.060440   0.000000
    12  C    0.447961  -0.071737  -0.071766   0.000001   0.000001   0.036742
    13  C   -0.047862   0.433507   0.433543   0.000000   0.000000  -0.058857
    14  C    0.000000   0.000000   0.000000  -0.031563  -0.031251   0.000000
    15  C    0.014952  -0.034747  -0.034798   0.000000   0.000000   0.328652
    16  C    0.000000   0.000000   0.000000   0.284069   0.283917   0.000000
    17  C    0.000000   0.000000   0.000000   0.000601   0.000617   0.000000
    18  H    0.000156  -0.000014  -0.000052  -0.000278  -0.001003   0.000001
    19  H   -0.000211  -0.000052  -0.000014  -0.001004  -0.000280   0.000001
    20  H   -0.000583   0.000078  -0.000113  -0.000076  -0.000058  -0.000006
    21  H    0.001459  -0.000114   0.000078  -0.000058  -0.000076  -0.000006
    22  H   -0.000072   0.000002   0.000000   0.002431   0.000357   0.000000
    23  H    0.000003   0.000000   0.000002   0.000350   0.002428   0.000000
    24  H    0.002068   0.001128  -0.000423   0.000034   0.000022  -0.000028
    25  H   -0.000428  -0.000424   0.001128   0.000022   0.000034  -0.000028
    26  H   -0.000003   0.000001   0.000002   0.003252   0.009956   0.000000
    27  H    0.000008   0.000002   0.000001   0.009953   0.003251   0.000000
    28  H    0.004395   0.000493   0.000805   0.000001   0.000001   0.000018
    29  H    0.000514   0.000807   0.000493   0.000001   0.000001   0.000018
    30  H    0.000003   0.000000   0.000000  -0.020496   0.004624   0.000000
    31  H    0.000000   0.000000   0.000000   0.004633  -0.020520   0.000000
    32  H   -0.019989   0.003990   0.001792   0.000000  -0.000001   0.000295
    33  H    0.013596   0.001799   0.003991  -0.000001   0.000000   0.000292
    34  H    0.000000   0.000000   0.000000  -0.015904  -0.026633   0.000000
    35  H    0.000000   0.000000   0.000000  -0.026640  -0.015895   0.000000
    36  H   -0.080016   0.008709  -0.013053   0.000000   0.000000  -0.001294
    37  H    0.567824  -0.013061   0.008716   0.000000   0.000000  -0.001306
    38  H   -0.013061   0.540834  -0.061637   0.000000   0.000000   0.002425
    39  H    0.008716  -0.061637   0.540865   0.000000   0.000000   0.002410
    40  H    0.000000   0.000000   0.000000   0.495328  -0.022499   0.000000
    41  H    0.000000   0.000000   0.000000  -0.022499   0.495340   0.000000
    42  H   -0.001306   0.002425   0.002410   0.000000   0.000000   0.466379
    43  H    0.001063  -0.012911   0.008625   0.000000   0.000000  -0.013458
    44  H    0.003274   0.008614  -0.012919   0.000000   0.000000  -0.013427
    45  H    0.000000   0.000000   0.000000  -0.000983   0.006047   0.000000
    46  H    0.000000   0.000000   0.000000  -0.001229  -0.001233   0.000000
    47  H    0.000000   0.000000   0.000000   0.006045  -0.000981   0.000000
              43         44         45         46         47
     1  O    0.000000   0.000000   0.014500  -0.073257   0.014497
     2  O    0.000000   0.000000  -0.016390   0.000559  -0.016398
     3  C   -0.000057  -0.000057  -0.000017  -0.000018  -0.000017
     4  C    0.000375   0.000376   0.000001   0.000003   0.000001
     5  C    0.000011   0.000011   0.000455   0.000012   0.000456
     6  C   -0.000857  -0.000853  -0.000001   0.000000  -0.000001
     7  C   -0.000002  -0.000002  -0.002847   0.000191  -0.002847
     8  C   -0.002116  -0.002086   0.000000   0.000000   0.000000
     9  C    0.000000   0.000000   0.012759  -0.002693   0.012755
    10  C   -0.022197  -0.022218   0.000000   0.000000   0.000000
    11  C    0.000000   0.000000  -0.000078   0.003499  -0.000038
    12  C   -0.018834  -0.018784   0.000000   0.000000   0.000000
    13  C   -0.040603  -0.040657   0.000000   0.000000   0.000000
    14  C    0.000000   0.000000  -0.104093   0.012212  -0.104174
    15  C    0.410962   0.411012   0.000000   0.000000   0.000000
    16  C    0.000000   0.000000   0.002532   0.048790   0.002600
    17  C    0.000000   0.000000   0.392083   0.355634   0.392085
    18  H   -0.000002   0.000002  -0.000008   0.000002  -0.000002
    19  H    0.000002  -0.000002  -0.000002   0.000002  -0.000008
    20  H    0.000012  -0.000032   0.000000   0.000000   0.000000
    21  H   -0.000032   0.000012   0.000000   0.000000   0.000000
    22  H    0.000002  -0.000001  -0.000024   0.000000   0.000007
    23  H   -0.000001   0.000002   0.000007   0.000000  -0.000024
    24  H   -0.000136   0.000100   0.000000   0.000000   0.000000
    25  H    0.000100  -0.000136   0.000000   0.000000   0.000000
    26  H    0.000000   0.000000   0.000286  -0.000059   0.000104
    27  H    0.000000   0.000000   0.000104  -0.000059   0.000286
    28  H   -0.000443   0.000894   0.000000   0.000000   0.000000
    29  H    0.000894  -0.000443   0.000000   0.000000   0.000000
    30  H    0.000000   0.000000   0.000629   0.000063  -0.000523
    31  H    0.000000   0.000000  -0.000524   0.000064   0.000629
    32  H    0.001239  -0.000296   0.000000   0.000000   0.000000
    33  H   -0.000295   0.001242   0.000000   0.000000   0.000000
    34  H    0.000000   0.000000  -0.002695   0.000632  -0.002391
    35  H    0.000000   0.000000  -0.002391   0.000631  -0.002693
    36  H    0.003268   0.001046   0.000000   0.000000   0.000000
    37  H    0.001063   0.003274   0.000000   0.000000   0.000000
    38  H   -0.012911   0.008614   0.000000   0.000000   0.000000
    39  H    0.008625  -0.012919   0.000000   0.000000   0.000000
    40  H    0.000000   0.000000  -0.000983  -0.001229   0.006045
    41  H    0.000000   0.000000   0.006047  -0.001233  -0.000981
    42  H   -0.013458  -0.013427   0.000000   0.000000   0.000000
    43  H    0.526994  -0.057332   0.000000   0.000000   0.000000
    44  H   -0.057332   0.526915   0.000000   0.000000   0.000000
    45  H    0.000000   0.000000   0.511974  -0.025698  -0.053067
    46  H    0.000000   0.000000  -0.025698   0.476539  -0.025692
    47  H    0.000000   0.000000  -0.053067  -0.025692   0.511956
 Mulliken charges:
               1
     1  O   -0.108297
     2  O   -0.303658
     3  C   -0.438498
     4  C   -0.436764
     5  C   -0.499303
     6  C   -0.452979
     7  C   -0.365981
     8  C   -0.421206
     9  C   -0.678062
    10  C   -0.360232
    11  C   -0.157997
    12  C   -0.379593
    13  C   -0.222240
    14  C   -0.762539
    15  C   -0.956173
    16  C    0.179418
    17  C   -0.506646
    18  H    0.214475
    19  H    0.214456
    20  H    0.211957
    21  H    0.211947
    22  H    0.215865
    23  H    0.215872
    24  H    0.213114
    25  H    0.213102
    26  H    0.207818
    27  H    0.207833
    28  H    0.211939
    29  H    0.211936
    30  H    0.205179
    31  H    0.205161
    32  H    0.209341
    33  H    0.209348
    34  H    0.277342
    35  H    0.277375
    36  H    0.210006
    37  H    0.209980
    38  H    0.223338
    39  H    0.223356
    40  H    0.314388
    41  H    0.314355
    42  H    0.243813
    43  H    0.215727
    44  H    0.215745
    45  H    0.267440
    46  H    0.231106
    47  H    0.267436
 Sum of Mulliken charges =   0.00000
 Mulliken charges with hydrogens summed into heavy atoms:
               1
     1  O   -0.108297
     2  O   -0.303658
     3  C   -0.009567
     4  C   -0.012859
     5  C   -0.067566
     6  C   -0.026763
     7  C    0.049670
     8  C    0.002668
     9  C   -0.267722
    10  C    0.058457
    11  C    0.396720
    12  C    0.040393
    13  C    0.224453
    14  C   -0.133796
    15  C   -0.280888
    16  C    0.179418
    17  C    0.259336
 Electronic spatial extent (au):  <R**2>=          18273.8304
 Charge=              0.0000 electrons
 Dipole moment (field-independent basis, Debye):
    X=             -0.2348    Y=             -1.5859    Z=              0.0002  Tot=              1.6031
 Quadrupole moment (field-independent basis, Debye-Ang):
   XX=           -101.9312   YY=           -120.0469   ZZ=           -109.8380
   XY=             10.6967   XZ=             -0.0026   YZ=              0.0009
 Traceless Quadrupole moment (field-independent basis, Debye-Ang):
   XX=              8.6742   YY=             -9.4415   ZZ=              0.7674
   XY=             10.6967   XZ=             -0.0026   YZ=              0.0009
 Octapole moment (field-independent basis, Debye-Ang**2):
  XXX=           -309.7788  YYY=             -5.0268  ZZZ=              0.0001  XYY=             14.0063
  XXY=            -52.8102  XXZ=              0.0298  XZZ=            -28.0466  YZZ=              0.7389
  YYZ=              0.0013  XYZ=             -0.0095
 Hexadecapole moment (field-independent basis, Debye-Ang**3):
 XXXX=         -21630.6932 YYYY=           -470.8228 ZZZZ=           -219.7980 XXXY=            440.9189
 XXXZ=             -0.3217 YYYX=             41.1797 YYYZ=             -0.0023 ZZZX=              0.0080
 ZZZY=              0.0011 XXYY=          -4472.5812 XXZZ=          -4011.4685 YYZZ=           -104.7402
 XXYZ=              0.0377 YYXZ=             -0.0194 ZZXY=             -9.9950
 N-N= 1.089148563798D+03 E-N=-3.898485955690D+03  KE= 7.372305535833D+02
 1\1\GINC-X1-CARBON\FOpt\RB3LYP\6-311++G\C15H30O2\CADD\13-Dec-2022\0\\#
  opt b3lyp/6-311++g geom=connectivity\\Title Card Required\\0,1\O,5.46
 36320554,-2.1308354675,0.3460293047\O,4.309143385,-0.7124032386,1.7235
 082477\C,-3.3603531689,-1.7270408402,0.2989351147\C,-4.5824028427,-2.3
 512341871,-0.3962605621\C,-2.0174764208,-2.2877842215,-0.1994913196\C,
 -5.9259827487,-1.791219511,0.1011729394\C,-0.7952934325,-1.664050496,0
 .495585609\C,-7.1475275602,-2.4160221255,-0.5944306357\C,0.546355991,-
 2.226170027,-0.0039982727\C,-8.491675744,-1.8566978336,-0.0976882326\C
 ,1.764059779,-1.5986065797,0.6945715344\C,-9.7127986931,-2.4815146876,
 -0.7934819384\C,-11.0578371105,-1.9231221715,-0.2974714579\C,3.0900392
 224,-2.1726996412,0.1817083926\C,-12.2710330789,-2.5531089385,-0.99825
 84223\C,4.303744721,-1.5788513937,0.8455726676\C,6.7351771115,-1.64458
 92158,0.9039364168\H,-3.3757488764,-0.640737922,0.1493517518\H,-3.4393
 757825,-1.8877653192,1.3808726327\H,-4.5030416536,-2.1906010702,-1.478
 2878705\H,-4.5667889262,-3.437618779,-0.2465703808\H,-2.0025636113,-3.
 3742051998,-0.0500089599\H,-1.9387856881,-2.126802982,-1.2815132157\H,
 -6.0055476221,-1.9517654206,1.1831534451\H,-5.9418792314,-0.7048975939
 ,-0.048621571\H,-0.8094756465,-0.5779751736,0.3461028839\H,-0.87339203
 31,-1.8247924223,1.5773301116\H,-7.0677454672,-2.2554734091,-1.6764268
 367\H,-7.1313979051,-3.5023763243,-0.4446639777\H,0.559307128,-3.31273
 2734,0.1455731986\H,0.6231855855,-2.0654790789,-1.0863255084\H,-8.5716
 300796,-2.0173610793,0.9842905383\H,-8.5078956077,-0.7703228988,-0.247
 3868003\H,1.756920075,-0.5149883474,0.5484842666\H,1.693524041,-1.7565
 131554,1.7742556778\H,-9.6338891354,-2.3209171417,-1.8756797098\H,-9.6
 974964735,-3.5680805262,-0.6441186025\H,-11.1365773748,-2.0836764169,0
 .7837240912\H,-11.0729664106,-0.8375447068,-0.446650563\H,3.1269829384
 ,-3.2570070059,0.3263687419\H,3.1900885728,-2.0182134702,-0.897237108\
 H,-13.2090740135,-2.1363723326,-0.6240986799\H,-12.3003121245,-3.63440
 85661,-0.8384409319\H,-12.2366870812,-2.3789940224,-2.0771977143\H,6.7
 74169451,-1.8409846226,1.9734962738\H,7.4991038598,-2.2042544179,0.376
 0835821\H,6.8382176276,-0.5761872846,0.7252018496\\Version=ES64L-G09Re
 vD.01\State=1-A\HF=-740.1296311\RMSD=8.302e-09\RMSF=1.090e-06\Dipole=0
 .149578,-0.4343055,-0.4322261\Quadrupole=7.7888695,-3.598088,-4.190781
 5,-4.8030512,-4.4937631,-4.470949\PG=C01 [X(C15H30O2)]\\@


 IF YOU BELIEVE CERTAIN WORDS, YOU BELIEVE THEIR HIDDEN ARGUMENTS.
 WHEN YOU BELIEVE SOMETHING IS RIGHT OR WRONG, TRUE OR FALSE, 
 YOU BELIEVE THE ASSUMPTIONS IN THE WORDS WHICH EXPRESS THE ARGUMENTS.
 SUCH ASSUMPTIONS ARE OFTEN FULL OF HOLES, BUT REMAIN MOST PRECIOUS 
 TO THE CONVINCED.

                 -- THE OPEN-ENDED PROOF FROM THE PANOPLIA PROPHETICA
                    CHILDREN OF DUNE BY FRANK HERBERT
 Job cpu time:       0 days  5 hours 57 minutes 54.6 seconds.
 File lengths (MBytes):  RWF=    105 Int=      0 D2E=      0 Chk=     14 Scr=      1
 Normal termination of Gaussian 09 at Tue Dec 13 14:25:05 2022.
