 Entering Gaussian System, Link 0=/home/cadd/g09/g09
 Input=PEG_avo_opt2.com
 Output=PEG_avo_opt2.log
 Initial command:
 /home/cadd//g09/l1.exe "/home/cadd/g09/scratch/Gau-23751.inp" -scrdir="/home/cadd/g09/scratch/"
 Entering Link 1 = /home/cadd//g09/l1.exe PID=     23752.
  
 Copyright (c) 1988,1990,1992,1993,1995,1998,2003,2009,2013,
            Gaussian, Inc.  All Rights Reserved.
  
 This is part of the Gaussian(R) 09 program.  It is based on
 the Gaussian(R) 03 system (copyright 2003, Gaussian, Inc.),
 the Gaussian(R) 98 system (copyright 1998, Gaussian, Inc.),
 the Gaussian(R) 94 system (copyright 1995, Gaussian, Inc.),
 the Gaussian 92(TM) system (copyright 1992, Gaussian, Inc.),
 the Gaussian 90(TM) system (copyright 1990, Gaussian, Inc.),
 the Gaussian 88(TM) system (copyright 1988, Gaussian, Inc.),
 the Gaussian 86(TM) system (copyright 1986, Carnegie Mellon
 University), and the Gaussian 82(TM) system (copyright 1983,
 Carnegie Mellon University). Gaussian is a federally registered
 trademark of Gaussian, Inc.
  
 This software contains proprietary and confidential information,
 including trade secrets, belonging to Gaussian, Inc.
  
 This software is provided under written license and may be
 used, copied, transmitted, or stored only in accord with that
 written license.
  
 The following legend is applicable only to US Government
 contracts under FAR:
  
                    RESTRICTED RIGHTS LEGEND
  
 Use, reproduction and disclosure by the US Government is
 subject to restrictions as set forth in subparagraphs (a)
 and (c) of the Commercial Computer Software - Restricted
 Rights clause in FAR 52.227-19.
  
 Gaussian, Inc.
 340 Quinnipiac St., Bldg. 40, Wallingford CT 06492
  
  
 ---------------------------------------------------------------
 Warning -- This program may not be used in any manner that
 competes with the business of Gaussian, Inc. or will provide
 assistance to any competitor of Gaussian, Inc.  The licensee
 of this program is prohibited from giving any competitor of
 Gaussian, Inc. access to this program.  By using this program,
 the user acknowledges that Gaussian, Inc. is engaged in the
 business of creating and licensing software in the field of
 computational chemistry and represents and warrants to the
 licensee that it is not a competitor of Gaussian, Inc. and that
 it will not use this program in any manner prohibited above.
 ---------------------------------------------------------------
  

 Cite this work as:
 Gaussian 09, Revision D.01,
 M. J. Frisch, G. W. Trucks, H. B. Schlegel, G. E. Scuseria, 
 M. A. Robb, J. R. Cheeseman, G. Scalmani, V. Barone, B. Mennucci, 
 G. A. Petersson, H. Nakatsuji, M. Caricato, X. Li, H. P. Hratchian, 
 A. F. Izmaylov, J. Bloino, G. Zheng, J. L. Sonnenberg, M. Hada, 
 M. Ehara, K. Toyota, R. Fukuda, J. Hasegawa, M. Ishida, T. Nakajima, 
 Y. Honda, O. Kitao, H. Nakai, T. Vreven, J. A. Montgomery, Jr., 
 J. E. Peralta, F. Ogliaro, M. Bearpark, J. J. Heyd, E. Brothers, 
 K. N. Kudin, V. N. Staroverov, T. Keith, R. Kobayashi, J. Normand, 
 K. Raghavachari, A. Rendell, J. C. Burant, S. S. Iyengar, J. Tomasi, 
 M. Cossi, N. Rega, J. M. Millam, M. Klene, J. E. Knox, J. B. Cross, 
 V. Bakken, C. Adamo, J. Jaramillo, R. Gomperts, R. E. Stratmann, 
 O. Yazyev, A. J. Austin, R. Cammi, C. Pomelli, J. W. Ochterski, 
 R. L. Martin, K. Morokuma, V. G. Zakrzewski, G. A. Voth, 
 P. Salvador, J. J. Dannenberg, S. Dapprich, A. D. Daniels, 
 O. Farkas, J. B. Foresman, J. V. Ortiz, J. Cioslowski, 
 and D. J. Fox, Gaussian, Inc., Wallingford CT, 2013.
 
 ******************************************
 Gaussian 09:  ES64L-G09RevD.01 24-Apr-2013
                12-Dec-2022 
 ******************************************
 %nprocshared=2
 Will use up to    2 processors via shared memory.
 %chk=PEG_avo_opt2.chk
 ----------------------------------------------------------------------
 # opt=(calcfc,tight,rfo) freq=noraman am1 scrf=check geom=connectivity
 ----------------------------------------------------------------------
 1/7=10,10=4,14=-1,18=20,19=6,26=1,38=1,40=1,57=2/1,3;
 2/9=110,12=2,17=6,18=5,40=1/2;
 3/5=2,16=1,25=1,41=700000,70=2,71=2,140=1/1,2,3;
 4/35=1/1;
 5/5=2,35=1,38=5/2;
 8/6=4,10=90,11=11/1;
 11/6=1,8=1,9=11,15=111,16=1/1,2,10;
 10/6=1,13=1/2;
 6/7=2,8=2,9=2,10=2,28=1/1;
 7/10=1,18=20,25=1/1,2,3,16;
 1/7=10,10=4,14=-1,18=20,19=6,26=1/3(2);
 2/9=110/2;
 99//99;
 2/9=110/2;
 3/5=2,16=1,25=1,41=700000,70=5,71=1,135=20/1,2,3;
 4/5=5,16=3,35=1/1;
 5/5=2,35=1,38=5/2;
 7//1,2,3,16;
 1/7=10,14=-1,18=20,19=6,26=1/3(-5);
 2/9=110/2;
 6/7=2,8=2,9=2,10=2,19=2,28=1/1;
 99/9=1/99;
 --------
 opt2 PEG
 --------
 Symbolic Z-matrix:
 Charge =  0 Multiplicity = 1
 O(PDBName=O,ResName=UNL,ResNum=1) -5.61064  -1.11568   0.19768 
 O(PDBName=O,ResName=UNL,ResNum=1) -5.19623   1.74194   0.22708 
 O(PDBName=O,ResName=UNL,ResNum=1) -5.948    -2.10635  -1.78176 
 O(PDBName=O,ResName=UNL,ResNum=1) -8.96462   0.22838  -0.14752 
 O(PDBName=O,ResName=UNL,ResNum=1) -4.13314   1.45334   2.18236 
 O(PDBName=O,ResName=UNL,ResNum=1) -12.53788   0.39647  -0.26151 
 C(PDBName=C,ResName=UNL,ResNum=1)  2.12658  -1.91781   0.17577 
 C(PDBName=C,ResName=UNL,ResNum=1)  3.38882  -2.74576   0.28568 
 C(PDBName=C,ResName=UNL,ResNum=1)  3.338     1.79942   0.25452 
 C(PDBName=C,ResName=UNL,ResNum=1)  4.53756   2.40364  -0.44318 
 C(PDBName=C,ResName=UNL,ResNum=1)  0.89148  -2.79305   0.17389 
 C(PDBName=C,ResName=UNL,ResNum=1)  4.62291  -1.87123   0.22943 
 C(PDBName=C,ResName=UNL,ResNum=1)  2.04457   2.40594  -0.2459 
 C(PDBName=C,ResName=UNL,ResNum=1)  5.83048   1.84469   0.11088 
 C(PDBName=C,ResName=UNL,ResNum=1) -0.36383  -1.96247   0.01651 
 C(PDBName=C,ResName=UNL,ResNum=1)  5.88822  -2.69684   0.32122 
 C(PDBName=C,ResName=UNL,ResNum=1)  0.84764   1.76029   0.4184 
 C(PDBName=C,ResName=UNL,ResNum=1)  7.03213   2.40886  -0.61618 
 C(PDBName=C,ResName=UNL,ResNum=1) -1.60028  -2.83437  -0.04349 
 C(PDBName=C,ResName=UNL,ResNum=1)  7.11972  -1.82245   0.22299 
 C(PDBName=C,ResName=UNL,ResNum=1) -0.4444    2.42899  -0.00055 
 C(PDBName=C,ResName=UNL,ResNum=1)  8.32348   1.87512  -0.03437 
 C(PDBName=C,ResName=UNL,ResNum=1) -2.83226  -1.99757  -0.31225 
 C(PDBName=C,ResName=UNL,ResNum=1)  8.38828  -2.64316   0.31191 
 C(PDBName=C,ResName=UNL,ResNum=1) -1.63443   1.74723   0.63917 
 C(PDBName=C,ResName=UNL,ResNum=1)  9.52664   2.3987   -0.78846 
 C(PDBName=C,ResName=UNL,ResNum=1) -4.07727  -2.8591   -0.37102 
 C(PDBName=C,ResName=UNL,ResNum=1)  9.61694  -1.76758   0.18633 
 C(PDBName=C,ResName=UNL,ResNum=1)  10.81703   1.86783  -0.20049 
 C(PDBName=C,ResName=UNL,ResNum=1) -2.92449   2.45875   0.28762 
 C(PDBName=C,ResName=UNL,ResNum=1) -5.27007  -2.03764  -0.75578 
 C(PDBName=C,ResName=UNL,ResNum=1) -6.62559  -0.15206  -0.12901 
 C(PDBName=C,ResName=UNL,ResNum=1)  10.88627  -2.57361   0.28039 
 C(PDBName=C,ResName=UNL,ResNum=1)  12.01759   2.3561   -0.96869 
 C(PDBName=C,ResName=UNL,ResNum=1) -4.07909   1.83771   1.01367 
 C(PDBName=C,ResName=UNL,ResNum=1) -6.34633   1.06995   0.74741 
 C(PDBName=C,ResName=UNL,ResNum=1) -7.99374  -0.75551   0.1987 
 C(PDBName=C,ResName=UNL,ResNum=1) -10.29314  -0.28853  -0.07455 
 C(PDBName=C,ResName=UNL,ResNum=1) -11.20768   0.86815  -0.46607 
 C(PDBName=C,ResName=UNL,ResNum=1) -13.51214   1.36689  -0.60529 
 H(PDBName=H,ResName=UNL,ResNum=1)  2.07452  -1.19307   1.03142 
 H(PDBName=H,ResName=UNL,ResNum=1)  2.15726  -1.3089   -0.76696 
 H(PDBName=H,ResName=UNL,ResNum=1)  3.37851  -3.32289   1.24756 
 H(PDBName=H,ResName=UNL,ResNum=1)  3.42128  -3.49493  -0.54905 
 H(PDBName=H,ResName=UNL,ResNum=1)  3.3246    0.68765   0.08675 
 H(PDBName=H,ResName=UNL,ResNum=1)  3.425     1.9637    1.36116 
 H(PDBName=H,ResName=UNL,ResNum=1)  4.47717   2.19509  -1.54387 
 H(PDBName=H,ResName=UNL,ResNum=1)  4.52548   3.51843  -0.31713 
 H(PDBName=H,ResName=UNL,ResNum=1)  0.95899  -3.53582  -0.66451 
 H(PDBName=H,ResName=UNL,ResNum=1)  0.84057  -3.37712   1.13015 
 H(PDBName=H,ResName=UNL,ResNum=1)  4.62496  -1.28468  -0.72783 
 H(PDBName=H,ResName=UNL,ResNum=1)  4.59652  -1.12662   1.06903 
 H(PDBName=H,ResName=UNL,ResNum=1)  2.04225   3.50868  -0.03882 
 H(PDBName=H,ResName=UNL,ResNum=1)  1.97254   2.2785   -1.35813 
 H(PDBName=H,ResName=UNL,ResNum=1)  5.9054    2.08603   1.20409 
 H(PDBName=H,ResName=UNL,ResNum=1)  5.82702   0.72386   0.02031 
 H(PDBName=H,ResName=UNL,ResNum=1) -0.45142  -1.24394   0.87476 
 H(PDBName=H,ResName=UNL,ResNum=1) -0.29154  -1.34732  -0.91984 
 H(PDBName=H,ResName=UNL,ResNum=1)  5.90138  -3.25947   1.29168 
 H(PDBName=H,ResName=UNL,ResNum=1)  5.9014   -3.45846  -0.50259 
 H(PDBName=H,ResName=UNL,ResNum=1)  0.81289   0.66828   0.15271 
 H(PDBName=H,ResName=UNL,ResNum=1)  0.95667   1.82401   1.53352 
 H(PDBName=H,ResName=UNL,ResNum=1)  6.97135   2.144    -1.70474 
 H(PDBName=H,ResName=UNL,ResNum=1)  7.02306   3.52864  -0.54782 
 H(PDBName=H,ResName=UNL,ResNum=1) -1.48206  -3.60264  -0.85273 
 H(PDBName=H,ResName=UNL,ResNum=1) -1.71998  -3.38715   0.9251 
 H(PDBName=H,ResName=UNL,ResNum=1)  7.10379  -1.258    -0.74729 
 H(PDBName=H,ResName=UNL,ResNum=1)  7.10649  -1.05893   1.04583 
 H(PDBName=H,ResName=UNL,ResNum=1) -0.4214    3.51038   0.29795 
 H(PDBName=H,ResName=UNL,ResNum=1) -0.5438    2.39543  -1.11742 
 H(PDBName=H,ResName=UNL,ResNum=1)  8.39903   2.17011   1.04548 
 H(PDBName=H,ResName=UNL,ResNum=1)  8.31675   0.75115  -0.06941 
 H(PDBName=H,ResName=UNL,ResNum=1) -2.95528  -1.22642   0.49493 
 H(PDBName=H,ResName=UNL,ResNum=1) -2.70794  -1.4489   -1.28333 
 H(PDBName=H,ResName=UNL,ResNum=1)  8.41494  -3.19093   1.29057 
 H(PDBName=H,ResName=UNL,ResNum=1)  8.39434  -3.41715  -0.50025 
 H(PDBName=H,ResName=UNL,ResNum=1) -1.68689   0.67847   0.29546 
 H(PDBName=H,ResName=UNL,ResNum=1) -1.51299   1.72987   1.75536 
 H(PDBName=H,ResName=UNL,ResNum=1)  9.45437   2.09869  -1.86717 
 H(PDBName=H,ResName=UNL,ResNum=1)  9.53277   3.5201   -0.75742 
 H(PDBName=H,ResName=UNL,ResNum=1) -3.95763  -3.67564  -1.13129 
 H(PDBName=H,ResName=UNL,ResNum=1) -4.26791  -3.32863   0.62999 
 H(PDBName=H,ResName=UNL,ResNum=1)  9.58814  -1.22256  -0.79496 
 H(PDBName=H,ResName=UNL,ResNum=1)  9.6045   -0.98776   0.9941 
 H(PDBName=H,ResName=UNL,ResNum=1)  10.89876   2.18989   0.87134 
 H(PDBName=H,ResName=UNL,ResNum=1)  10.79479   0.7442   -0.20568 
 H(PDBName=H,ResName=UNL,ResNum=1) -2.87278   3.53758   0.59558 
 H(PDBName=H,ResName=UNL,ResNum=1) -3.10718   2.42451  -0.81845 
 H(PDBName=H,ResName=UNL,ResNum=1) -6.5675    0.11626  -1.21923 
 H(PDBName=H,ResName=UNL,ResNum=1)  11.77604  -1.90552   0.18294 
 H(PDBName=H,ResName=UNL,ResNum=1)  10.92887  -3.33934  -0.53154 
 H(PDBName=H,ResName=UNL,ResNum=1)  10.94689  -3.10178   1.26261 
 H(PDBName=H,ResName=UNL,ResNum=1)  12.95716   1.95717  -0.51582 
 H(PDBName=H,ResName=UNL,ResNum=1)  12.06637   3.4719   -0.95665 
 H(PDBName=H,ResName=UNL,ResNum=1)  11.96866   2.02005  -2.03274 
 H(PDBName=H,ResName=UNL,ResNum=1) -6.20634   0.77369   1.81858 
 H(PDBName=H,ResName=UNL,ResNum=1) -7.19672   1.79553   0.63745 
 H(PDBName=H,ResName=UNL,ResNum=1) -8.0746   -0.99614   1.29121 
 H(PDBName=H,ResName=UNL,ResNum=1) -8.14338  -1.6886   -0.40724 
 H(PDBName=H,ResName=UNL,ResNum=1) -10.41153  -1.14789  -0.78468 
 H(PDBName=H,ResName=UNL,ResNum=1) -10.51393  -0.63394   0.96911 
 H(PDBName=H,ResName=UNL,ResNum=1) -11.05793   1.14713  -1.54151 
 H(PDBName=H,ResName=UNL,ResNum=1) -11.01394   1.76405   0.18 
 H(PDBName=H,ResName=UNL,ResNum=1) -14.48965   0.86507  -0.39578 
 H(PDBName=H,ResName=UNL,ResNum=1) -13.43377   1.63864  -1.68706 
 H(PDBName=H,ResName=UNL,ResNum=1) -13.39691   2.28234   0.02628 
 
 Center=      1.00505254     -0.00079626     -0.01896612
 Residue   1 PDB Number     1_0 UNL charge    0.00000000 layers R        AvRTP=      0.00000000      0.00000000      0.00000000

 GradGradGradGradGradGradGradGradGradGradGradGradGradGradGradGradGradGrad
 Berny optimization.
 Initialization pass.
                           ----------------------------
                           !    Initial Parameters    !
                           ! (Angstroms and Degrees)  !
 --------------------------                            --------------------------
 ! Name  Definition              Value          Derivative Info.                !
 --------------------------------------------------------------------------------
 ! R1    R(1,31)                 1.3693         calculate D2E/DX2 analytically  !
 ! R2    R(1,32)                 1.4372         calculate D2E/DX2 analytically  !
 ! R3    R(2,35)                 1.3696         calculate D2E/DX2 analytically  !
 ! R4    R(2,36)                 1.43           calculate D2E/DX2 analytically  !
 ! R5    R(3,31)                 1.2316         calculate D2E/DX2 analytically  !
 ! R6    R(4,37)                 1.425          calculate D2E/DX2 analytically  !
 ! R7    R(4,38)                 1.4274         calculate D2E/DX2 analytically  !
 ! R8    R(5,35)                 1.2315         calculate D2E/DX2 analytically  !
 ! R9    R(6,39)                 1.4261         calculate D2E/DX2 analytically  !
 ! R10   R(6,40)                 1.4174         calculate D2E/DX2 analytically  !
 ! R11   R(7,8)                  1.5136         calculate D2E/DX2 analytically  !
 ! R12   R(7,11)                 1.5138         calculate D2E/DX2 analytically  !
 ! R13   R(7,41)                 1.1225         calculate D2E/DX2 analytically  !
 ! R14   R(7,42)                 1.1227         calculate D2E/DX2 analytically  !
 ! R15   R(8,12)                 1.5136         calculate D2E/DX2 analytically  !
 ! R16   R(8,43)                 1.1218         calculate D2E/DX2 analytically  !
 ! R17   R(8,44)                 1.1221         calculate D2E/DX2 analytically  !
 ! R18   R(9,10)                 1.5135         calculate D2E/DX2 analytically  !
 ! R19   R(9,13)                 1.5137         calculate D2E/DX2 analytically  !
 ! R20   R(9,45)                 1.1244         calculate D2E/DX2 analytically  !
 ! R21   R(9,46)                 1.1221         calculate D2E/DX2 analytically  !
 ! R22   R(10,14)                1.5136         calculate D2E/DX2 analytically  !
 ! R23   R(10,47)                1.1219         calculate D2E/DX2 analytically  !
 ! R24   R(10,48)                1.122          calculate D2E/DX2 analytically  !
 ! R25   R(11,15)                1.5134         calculate D2E/DX2 analytically  !
 ! R26   R(11,49)                1.1221         calculate D2E/DX2 analytically  !
 ! R27   R(11,50)                1.1217         calculate D2E/DX2 analytically  !
 ! R28   R(12,16)                1.5136         calculate D2E/DX2 analytically  !
 ! R29   R(12,51)                1.1227         calculate D2E/DX2 analytically  !
 ! R30   R(12,52)                1.1225         calculate D2E/DX2 analytically  !
 ! R31   R(13,17)                1.5135         calculate D2E/DX2 analytically  !
 ! R32   R(13,53)                1.122          calculate D2E/DX2 analytically  !
 ! R33   R(13,54)                1.1218         calculate D2E/DX2 analytically  !
 ! R34   R(14,18)                1.5136         calculate D2E/DX2 analytically  !
 ! R35   R(14,55)                1.122          calculate D2E/DX2 analytically  !
 ! R36   R(14,56)                1.1245         calculate D2E/DX2 analytically  !
 ! R37   R(15,19)                1.5141         calculate D2E/DX2 analytically  !
 ! R38   R(15,57)                1.1227         calculate D2E/DX2 analytically  !
 ! R39   R(15,58)                1.1227         calculate D2E/DX2 analytically  !
 ! R40   R(16,20)                1.5135         calculate D2E/DX2 analytically  !
 ! R41   R(16,59)                1.1218         calculate D2E/DX2 analytically  !
 ! R42   R(16,60)                1.122          calculate D2E/DX2 analytically  !
 ! R43   R(17,21)                1.514          calculate D2E/DX2 analytically  !
 ! R44   R(17,61)                1.1244         calculate D2E/DX2 analytically  !
 ! R45   R(17,62)                1.1223         calculate D2E/DX2 analytically  !
 ! R46   R(18,22)                1.5136         calculate D2E/DX2 analytically  !
 ! R47   R(18,63)                1.122          calculate D2E/DX2 analytically  !
 ! R48   R(18,64)                1.1219         calculate D2E/DX2 analytically  !
 ! R49   R(19,23)                1.5134         calculate D2E/DX2 analytically  !
 ! R50   R(19,65)                1.1221         calculate D2E/DX2 analytically  !
 ! R51   R(19,66)                1.1216         calculate D2E/DX2 analytically  !
 ! R52   R(20,24)                1.5135         calculate D2E/DX2 analytically  !
 ! R53   R(20,67)                1.1226         calculate D2E/DX2 analytically  !
 ! R54   R(20,68)                1.1226         calculate D2E/DX2 analytically  !
 ! R55   R(21,25)                1.5133         calculate D2E/DX2 analytically  !
 ! R56   R(21,69)                1.1221         calculate D2E/DX2 analytically  !
 ! R57   R(21,70)                1.1218         calculate D2E/DX2 analytically  !
 ! R58   R(22,26)                1.5134         calculate D2E/DX2 analytically  !
 ! R59   R(22,71)                1.122          calculate D2E/DX2 analytically  !
 ! R60   R(22,72)                1.1245         calculate D2E/DX2 analytically  !
 ! R61   R(23,27)                1.5152         calculate D2E/DX2 analytically  !
 ! R62   R(23,73)                1.1231         calculate D2E/DX2 analytically  !
 ! R63   R(23,74)                1.1223         calculate D2E/DX2 analytically  !
 ! R64   R(24,28)                1.5139         calculate D2E/DX2 analytically  !
 ! R65   R(24,75)                1.1218         calculate D2E/DX2 analytically  !
 ! R66   R(24,76)                1.1219         calculate D2E/DX2 analytically  !
 ! R67   R(25,30)                1.5146         calculate D2E/DX2 analytically  !
 ! R68   R(25,77)                1.1239         calculate D2E/DX2 analytically  !
 ! R69   R(25,78)                1.1229         calculate D2E/DX2 analytically  !
 ! R70   R(26,29)                1.5141         calculate D2E/DX2 analytically  !
 ! R71   R(26,79)                1.122          calculate D2E/DX2 analytically  !
 ! R72   R(26,80)                1.1218         calculate D2E/DX2 analytically  !
 ! R73   R(27,31)                1.4985         calculate D2E/DX2 analytically  !
 ! R74   R(27,81)                1.1221         calculate D2E/DX2 analytically  !
 ! R75   R(27,82)                1.122          calculate D2E/DX2 analytically  !
 ! R76   R(28,33)                1.5066         calculate D2E/DX2 analytically  !
 ! R77   R(28,83)                1.1228         calculate D2E/DX2 analytically  !
 ! R78   R(28,84)                1.1228         calculate D2E/DX2 analytically  !
 ! R79   R(29,34)                1.5066         calculate D2E/DX2 analytically  !
 ! R80   R(29,85)                1.1222         calculate D2E/DX2 analytically  !
 ! R81   R(29,86)                1.1239         calculate D2E/DX2 analytically  !
 ! R82   R(30,35)                1.4986         calculate D2E/DX2 analytically  !
 ! R83   R(30,87)                1.1231         calculate D2E/DX2 analytically  !
 ! R84   R(30,88)                1.1216         calculate D2E/DX2 analytically  !
 ! R85   R(32,36)                1.5295         calculate D2E/DX2 analytically  !
 ! R86   R(32,37)                1.5308         calculate D2E/DX2 analytically  !
 ! R87   R(32,89)                1.1243         calculate D2E/DX2 analytically  !
 ! R88   R(33,90)                1.1169         calculate D2E/DX2 analytically  !
 ! R89   R(33,91)                1.1169         calculate D2E/DX2 analytically  !
 ! R90   R(33,92)                1.1169         calculate D2E/DX2 analytically  !
 ! R91   R(34,93)                1.1167         calculate D2E/DX2 analytically  !
 ! R92   R(34,94)                1.1169         calculate D2E/DX2 analytically  !
 ! R93   R(34,95)                1.1169         calculate D2E/DX2 analytically  !
 ! R94   R(36,96)                1.1202         calculate D2E/DX2 analytically  !
 ! R95   R(36,97)                1.1233         calculate D2E/DX2 analytically  !
 ! R96   R(37,98)                1.1216         calculate D2E/DX2 analytically  !
 ! R97   R(37,99)                1.1226         calculate D2E/DX2 analytically  !
 ! R98   R(38,39)                1.5256         calculate D2E/DX2 analytically  !
 ! R99   R(38,100)               1.1211         calculate D2E/DX2 analytically  !
 ! R100  R(38,101)               1.1213         calculate D2E/DX2 analytically  !
 ! R101  R(39,102)               1.1211         calculate D2E/DX2 analytically  !
 ! R102  R(39,103)               1.1214         calculate D2E/DX2 analytically  !
 ! R103  R(40,104)               1.1186         calculate D2E/DX2 analytically  !
 ! R104  R(40,105)               1.1181         calculate D2E/DX2 analytically  !
 ! R105  R(40,106)               1.1181         calculate D2E/DX2 analytically  !
 ! A1    A(31,1,32)            117.957          calculate D2E/DX2 analytically  !
 ! A2    A(35,2,36)            118.6769         calculate D2E/DX2 analytically  !
 ! A3    A(37,4,38)            111.8188         calculate D2E/DX2 analytically  !
 ! A4    A(39,6,40)            112.3271         calculate D2E/DX2 analytically  !
 ! A5    A(8,7,11)             111.3603         calculate D2E/DX2 analytically  !
 ! A6    A(8,7,41)             109.6638         calculate D2E/DX2 analytically  !
 ! A7    A(8,7,42)             109.5648         calculate D2E/DX2 analytically  !
 ! A8    A(11,7,41)            109.6581         calculate D2E/DX2 analytically  !
 ! A9    A(11,7,42)            109.5626         calculate D2E/DX2 analytically  !
 ! A10   A(41,7,42)            106.9277         calculate D2E/DX2 analytically  !
 ! A11   A(7,8,12)             111.1736         calculate D2E/DX2 analytically  !
 ! A12   A(7,8,43)             109.6357         calculate D2E/DX2 analytically  !
 ! A13   A(7,8,44)             109.5927         calculate D2E/DX2 analytically  !
 ! A14   A(12,8,43)            109.6705         calculate D2E/DX2 analytically  !
 ! A15   A(12,8,44)            109.5437         calculate D2E/DX2 analytically  !
 ! A16   A(43,8,44)            107.1365         calculate D2E/DX2 analytically  !
 ! A17   A(10,9,13)            111.3999         calculate D2E/DX2 analytically  !
 ! A18   A(10,9,45)            109.5952         calculate D2E/DX2 analytically  !
 ! A19   A(10,9,46)            109.5551         calculate D2E/DX2 analytically  !
 ! A20   A(13,9,45)            109.6735         calculate D2E/DX2 analytically  !
 ! A21   A(13,9,46)            109.4885         calculate D2E/DX2 analytically  !
 ! A22   A(45,9,46)            107.027          calculate D2E/DX2 analytically  !
 ! A23   A(9,10,14)            111.1516         calculate D2E/DX2 analytically  !
 ! A24   A(9,10,47)            109.596          calculate D2E/DX2 analytically  !
 ! A25   A(9,10,48)            109.6535         calculate D2E/DX2 analytically  !
 ! A26   A(14,10,47)           109.6622         calculate D2E/DX2 analytically  !
 ! A27   A(14,10,48)           109.5723         calculate D2E/DX2 analytically  !
 ! A28   A(47,10,48)           107.1175         calculate D2E/DX2 analytically  !
 ! A29   A(7,11,15)            111.0736         calculate D2E/DX2 analytically  !
 ! A30   A(7,11,49)            109.5463         calculate D2E/DX2 analytically  !
 ! A31   A(7,11,50)            109.6966         calculate D2E/DX2 analytically  !
 ! A32   A(15,11,49)           109.6014         calculate D2E/DX2 analytically  !
 ! A33   A(15,11,50)           109.6799         calculate D2E/DX2 analytically  !
 ! A34   A(49,11,50)           107.1595         calculate D2E/DX2 analytically  !
 ! A35   A(8,12,16)            111.3564         calculate D2E/DX2 analytically  !
 ! A36   A(8,12,51)            109.5753         calculate D2E/DX2 analytically  !
 ! A37   A(8,12,52)            109.6513         calculate D2E/DX2 analytically  !
 ! A38   A(16,12,51)           109.5823         calculate D2E/DX2 analytically  !
 ! A39   A(16,12,52)           109.6402         calculate D2E/DX2 analytically  !
 ! A40   A(51,12,52)           106.932          calculate D2E/DX2 analytically  !
 ! A41   A(9,13,17)            111.0826         calculate D2E/DX2 analytically  !
 ! A42   A(9,13,53)            109.545          calculate D2E/DX2 analytically  !
 ! A43   A(9,13,54)            109.7016         calculate D2E/DX2 analytically  !
 ! A44   A(17,13,53)           109.6709         calculate D2E/DX2 analytically  !
 ! A45   A(17,13,54)           109.6285         calculate D2E/DX2 analytically  !
 ! A46   A(53,13,54)           107.1274         calculate D2E/DX2 analytically  !
 ! A47   A(10,14,18)           111.3881         calculate D2E/DX2 analytically  !
 ! A48   A(10,14,55)           109.5273         calculate D2E/DX2 analytically  !
 ! A49   A(10,14,56)           109.6312         calculate D2E/DX2 analytically  !
 ! A50   A(18,14,55)           109.5627         calculate D2E/DX2 analytically  !
 ! A51   A(18,14,56)           109.5893         calculate D2E/DX2 analytically  !
 ! A52   A(55,14,56)           107.0419         calculate D2E/DX2 analytically  !
 ! A53   A(11,15,19)           111.4341         calculate D2E/DX2 analytically  !
 ! A54   A(11,15,57)           109.6604         calculate D2E/DX2 analytically  !
 ! A55   A(11,15,58)           109.5134         calculate D2E/DX2 analytically  !
 ! A56   A(19,15,57)           109.5797         calculate D2E/DX2 analytically  !
 ! A57   A(19,15,58)           109.576          calculate D2E/DX2 analytically  !
 ! A58   A(57,15,58)           106.9722         calculate D2E/DX2 analytically  !
 ! A59   A(12,16,20)           111.1688         calculate D2E/DX2 analytically  !
 ! A60   A(12,16,59)           109.6227         calculate D2E/DX2 analytically  !
 ! A61   A(12,16,60)           109.6057         calculate D2E/DX2 analytically  !
 ! A62   A(20,16,59)           109.654          calculate D2E/DX2 analytically  !
 ! A63   A(20,16,60)           109.5689         calculate D2E/DX2 analytically  !
 ! A64   A(59,16,60)           107.1328         calculate D2E/DX2 analytically  !
 ! A65   A(13,17,21)           111.4091         calculate D2E/DX2 analytically  !
 ! A66   A(13,17,61)           109.5738         calculate D2E/DX2 analytically  !
 ! A67   A(13,17,62)           109.5769         calculate D2E/DX2 analytically  !
 ! A68   A(21,17,61)           109.7063         calculate D2E/DX2 analytically  !
 ! A69   A(21,17,62)           109.4392         calculate D2E/DX2 analytically  !
 ! A70   A(61,17,62)           107.0339         calculate D2E/DX2 analytically  !
 ! A71   A(14,18,22)           111.178          calculate D2E/DX2 analytically  !
 ! A72   A(14,18,63)           109.5763         calculate D2E/DX2 analytically  !
 ! A73   A(14,18,64)           109.6546         calculate D2E/DX2 analytically  !
 ! A74   A(22,18,63)           109.6288         calculate D2E/DX2 analytically  !
 ! A75   A(22,18,64)           109.5993         calculate D2E/DX2 analytically  !
 ! A76   A(63,18,64)           107.1149         calculate D2E/DX2 analytically  !
 ! A77   A(15,19,23)           110.696          calculate D2E/DX2 analytically  !
 ! A78   A(15,19,65)           109.6828         calculate D2E/DX2 analytically  !
 ! A79   A(15,19,66)           109.6772         calculate D2E/DX2 analytically  !
 ! A80   A(23,19,65)           109.6508         calculate D2E/DX2 analytically  !
 ! A81   A(23,19,66)           109.8148         calculate D2E/DX2 analytically  !
 ! A82   A(65,19,66)           107.2531         calculate D2E/DX2 analytically  !
 ! A83   A(16,20,24)           111.4008         calculate D2E/DX2 analytically  !
 ! A84   A(16,20,67)           109.5737         calculate D2E/DX2 analytically  !
 ! A85   A(16,20,68)           109.6193         calculate D2E/DX2 analytically  !
 ! A86   A(24,20,67)           109.5912         calculate D2E/DX2 analytically  !
 ! A87   A(24,20,68)           109.6104         calculate D2E/DX2 analytically  !
 ! A88   A(67,20,68)           106.9406         calculate D2E/DX2 analytically  !
 ! A89   A(17,21,25)           110.802          calculate D2E/DX2 analytically  !
 ! A90   A(17,21,69)           109.5465         calculate D2E/DX2 analytically  !
 ! A91   A(17,21,70)           109.7502         calculate D2E/DX2 analytically  !
 ! A92   A(25,21,69)           109.7446         calculate D2E/DX2 analytically  !
 ! A93   A(25,21,70)           109.7374         calculate D2E/DX2 analytically  !
 ! A94   A(69,21,70)           107.1881         calculate D2E/DX2 analytically  !
 ! A95   A(18,22,26)           111.3918         calculate D2E/DX2 analytically  !
 ! A96   A(18,22,71)           109.5541         calculate D2E/DX2 analytically  !
 ! A97   A(18,22,72)           109.5951         calculate D2E/DX2 analytically  !
 ! A98   A(26,22,71)           109.5771         calculate D2E/DX2 analytically  !
 ! A99   A(26,22,72)           109.5737         calculate D2E/DX2 analytically  !
 ! A100  A(71,22,72)           107.0489         calculate D2E/DX2 analytically  !
 ! A101  A(19,23,27)           111.1867         calculate D2E/DX2 analytically  !
 ! A102  A(19,23,73)           109.9502         calculate D2E/DX2 analytically  !
 ! A103  A(19,23,74)           109.5001         calculate D2E/DX2 analytically  !
 ! A104  A(27,23,73)           109.1655         calculate D2E/DX2 analytically  !
 ! A105  A(27,23,74)           109.5999         calculate D2E/DX2 analytically  !
 ! A106  A(73,23,74)           107.3571         calculate D2E/DX2 analytically  !
 ! A107  A(20,24,28)           111.2066         calculate D2E/DX2 analytically  !
 ! A108  A(20,24,75)           109.6297         calculate D2E/DX2 analytically  !
 ! A109  A(20,24,76)           109.6386         calculate D2E/DX2 analytically  !
 ! A110  A(28,24,75)           109.601          calculate D2E/DX2 analytically  !
 ! A111  A(28,24,76)           109.5458         calculate D2E/DX2 analytically  !
 ! A112  A(75,24,76)           107.1294         calculate D2E/DX2 analytically  !
 ! A113  A(21,25,30)           111.1019         calculate D2E/DX2 analytically  !
 ! A114  A(21,25,77)           109.6228         calculate D2E/DX2 analytically  !
 ! A115  A(21,25,78)           110.0053         calculate D2E/DX2 analytically  !
 ! A116  A(30,25,77)           109.6322         calculate D2E/DX2 analytically  !
 ! A117  A(30,25,78)           109.2745         calculate D2E/DX2 analytically  !
 ! A118  A(77,25,78)           107.1177         calculate D2E/DX2 analytically  !
 ! A119  A(22,26,29)           111.2682         calculate D2E/DX2 analytically  !
 ! A120  A(22,26,79)           109.5931         calculate D2E/DX2 analytically  !
 ! A121  A(22,26,80)           109.6567         calculate D2E/DX2 analytically  !
 ! A122  A(29,26,79)           109.5413         calculate D2E/DX2 analytically  !
 ! A123  A(29,26,80)           109.5768         calculate D2E/DX2 analytically  !
 ! A124  A(79,26,80)           107.1119         calculate D2E/DX2 analytically  !
 ! A125  A(23,27,31)           110.6295         calculate D2E/DX2 analytically  !
 ! A126  A(23,27,81)           110.6368         calculate D2E/DX2 analytically  !
 ! A127  A(23,27,82)           110.0575         calculate D2E/DX2 analytically  !
 ! A128  A(31,27,81)           108.0475         calculate D2E/DX2 analytically  !
 ! A129  A(31,27,82)           108.8585         calculate D2E/DX2 analytically  !
 ! A130  A(81,27,82)           108.5474         calculate D2E/DX2 analytically  !
 ! A131  A(24,28,33)           111.6644         calculate D2E/DX2 analytically  !
 ! A132  A(24,28,83)           109.4148         calculate D2E/DX2 analytically  !
 ! A133  A(24,28,84)           109.4511         calculate D2E/DX2 analytically  !
 ! A134  A(33,28,83)           109.6246         calculate D2E/DX2 analytically  !
 ! A135  A(33,28,84)           109.6324         calculate D2E/DX2 analytically  !
 ! A136  A(83,28,84)           106.9366         calculate D2E/DX2 analytically  !
 ! A137  A(26,29,34)           111.5601         calculate D2E/DX2 analytically  !
 ! A138  A(26,29,85)           109.4112         calculate D2E/DX2 analytically  !
 ! A139  A(26,29,86)           109.3829         calculate D2E/DX2 analytically  !
 ! A140  A(34,29,85)           109.6316         calculate D2E/DX2 analytically  !
 ! A141  A(34,29,86)           109.7207         calculate D2E/DX2 analytically  !
 ! A142  A(85,29,86)           107.0253         calculate D2E/DX2 analytically  !
 ! A143  A(25,30,35)           110.4311         calculate D2E/DX2 analytically  !
 ! A144  A(25,30,87)           110.3888         calculate D2E/DX2 analytically  !
 ! A145  A(25,30,88)           110.6883         calculate D2E/DX2 analytically  !
 ! A146  A(35,30,87)           107.4993         calculate D2E/DX2 analytically  !
 ! A147  A(35,30,88)           109.854          calculate D2E/DX2 analytically  !
 ! A148  A(87,30,88)           107.8927         calculate D2E/DX2 analytically  !
 ! A149  A(1,31,3)             118.7306         calculate D2E/DX2 analytically  !
 ! A150  A(1,31,27)            112.8465         calculate D2E/DX2 analytically  !
 ! A151  A(3,31,27)            128.4208         calculate D2E/DX2 analytically  !
 ! A152  A(1,32,36)            106.0517         calculate D2E/DX2 analytically  !
 ! A153  A(1,32,37)            108.5546         calculate D2E/DX2 analytically  !
 ! A154  A(1,32,89)            110.1188         calculate D2E/DX2 analytically  !
 ! A155  A(36,32,37)           110.8221         calculate D2E/DX2 analytically  !
 ! A156  A(36,32,89)           110.8265         calculate D2E/DX2 analytically  !
 ! A157  A(37,32,89)           110.3564         calculate D2E/DX2 analytically  !
 ! A158  A(28,33,90)           110.2257         calculate D2E/DX2 analytically  !
 ! A159  A(28,33,91)           110.7047         calculate D2E/DX2 analytically  !
 ! A160  A(28,33,92)           110.7105         calculate D2E/DX2 analytically  !
 ! A161  A(90,33,91)           108.4382         calculate D2E/DX2 analytically  !
 ! A162  A(90,33,92)           108.443          calculate D2E/DX2 analytically  !
 ! A163  A(91,33,92)           108.2422         calculate D2E/DX2 analytically  !
 ! A164  A(29,34,93)           110.3593         calculate D2E/DX2 analytically  !
 ! A165  A(29,34,94)           110.6747         calculate D2E/DX2 analytically  !
 ! A166  A(29,34,95)           110.6913         calculate D2E/DX2 analytically  !
 ! A167  A(93,34,94)           108.4066         calculate D2E/DX2 analytically  !
 ! A168  A(93,34,95)           108.4041         calculate D2E/DX2 analytically  !
 ! A169  A(94,34,95)           108.225          calculate D2E/DX2 analytically  !
 ! A170  A(2,35,5)             119.1701         calculate D2E/DX2 analytically  !
 ! A171  A(2,35,30)            112.2806         calculate D2E/DX2 analytically  !
 ! A172  A(5,35,30)            128.531          calculate D2E/DX2 analytically  !
 ! A173  A(2,36,32)            108.2875         calculate D2E/DX2 analytically  !
 ! A174  A(2,36,96)            111.8212         calculate D2E/DX2 analytically  !
 ! A175  A(2,36,97)            105.6465         calculate D2E/DX2 analytically  !
 ! A176  A(32,36,96)           111.0669         calculate D2E/DX2 analytically  !
 ! A177  A(32,36,97)           108.7699         calculate D2E/DX2 analytically  !
 ! A178  A(96,36,97)           111.0428         calculate D2E/DX2 analytically  !
 ! A179  A(4,37,32)            106.5435         calculate D2E/DX2 analytically  !
 ! A180  A(4,37,98)            109.6138         calculate D2E/DX2 analytically  !
 ! A181  A(4,37,99)            110.6067         calculate D2E/DX2 analytically  !
 ! A182  A(32,37,98)           110.9479         calculate D2E/DX2 analytically  !
 ! A183  A(32,37,99)           109.3441         calculate D2E/DX2 analytically  !
 ! A184  A(98,37,99)           109.7445         calculate D2E/DX2 analytically  !
 ! A185  A(4,38,39)            105.6786         calculate D2E/DX2 analytically  !
 ! A186  A(4,38,100)           110.0905         calculate D2E/DX2 analytically  !
 ! A187  A(4,38,101)           110.0232         calculate D2E/DX2 analytically  !
 ! A188  A(39,38,100)          110.8126         calculate D2E/DX2 analytically  !
 ! A189  A(39,38,101)          110.7546         calculate D2E/DX2 analytically  !
 ! A190  A(100,38,101)         109.4304         calculate D2E/DX2 analytically  !
 ! A191  A(6,39,38)            105.7574         calculate D2E/DX2 analytically  !
 ! A192  A(6,39,102)           110.1504         calculate D2E/DX2 analytically  !
 ! A193  A(6,39,103)           110.0442         calculate D2E/DX2 analytically  !
 ! A194  A(38,39,102)          110.7795         calculate D2E/DX2 analytically  !
 ! A195  A(38,39,103)          110.7499         calculate D2E/DX2 analytically  !
 ! A196  A(102,39,103)         109.3167         calculate D2E/DX2 analytically  !
 ! A197  A(6,40,104)           104.3643         calculate D2E/DX2 analytically  !
 ! A198  A(6,40,105)           110.6629         calculate D2E/DX2 analytically  !
 ! A199  A(6,40,106)           110.6525         calculate D2E/DX2 analytically  !
 ! A200  A(104,40,105)         110.5786         calculate D2E/DX2 analytically  !
 ! A201  A(104,40,106)         110.583          calculate D2E/DX2 analytically  !
 ! A202  A(105,40,106)         109.8936         calculate D2E/DX2 analytically  !
 ! D1    D(32,1,31,3)           -8.5098         calculate D2E/DX2 analytically  !
 ! D2    D(32,1,31,27)         171.9762         calculate D2E/DX2 analytically  !
 ! D3    D(31,1,32,36)        -153.8341         calculate D2E/DX2 analytically  !
 ! D4    D(31,1,32,37)          87.0391         calculate D2E/DX2 analytically  !
 ! D5    D(31,1,32,89)         -33.8736         calculate D2E/DX2 analytically  !
 ! D6    D(36,2,35,5)           -6.4862         calculate D2E/DX2 analytically  !
 ! D7    D(36,2,35,30)         174.9422         calculate D2E/DX2 analytically  !
 ! D8    D(35,2,36,32)        -117.3951         calculate D2E/DX2 analytically  !
 ! D9    D(35,2,36,96)           5.2968         calculate D2E/DX2 analytically  !
 ! D10   D(35,2,36,97)         126.2145         calculate D2E/DX2 analytically  !
 ! D11   D(38,4,37,32)         171.3            calculate D2E/DX2 analytically  !
 ! D12   D(38,4,37,98)         -68.5819         calculate D2E/DX2 analytically  !
 ! D13   D(38,4,37,99)          52.5589         calculate D2E/DX2 analytically  !
 ! D14   D(37,4,38,39)         179.9227         calculate D2E/DX2 analytically  !
 ! D15   D(37,4,38,100)        -60.3668         calculate D2E/DX2 analytically  !
 ! D16   D(37,4,38,101)         60.3169         calculate D2E/DX2 analytically  !
 ! D17   D(40,6,39,38)        -179.1462         calculate D2E/DX2 analytically  !
 ! D18   D(40,6,39,102)        -59.3974         calculate D2E/DX2 analytically  !
 ! D19   D(40,6,39,103)         61.1968         calculate D2E/DX2 analytically  !
 ! D20   D(39,6,40,104)       -179.9515         calculate D2E/DX2 analytically  !
 ! D21   D(39,6,40,105)         61.0779         calculate D2E/DX2 analytically  !
 ! D22   D(39,6,40,106)        -60.981          calculate D2E/DX2 analytically  !
 ! D23   D(11,7,8,12)          177.6463         calculate D2E/DX2 analytically  !
 ! D24   D(11,7,8,43)          -60.923          calculate D2E/DX2 analytically  !
 ! D25   D(11,7,8,44)           56.4036         calculate D2E/DX2 analytically  !
 ! D26   D(41,7,8,12)          -60.7969         calculate D2E/DX2 analytically  !
 ! D27   D(41,7,8,43)           60.6337         calculate D2E/DX2 analytically  !
 ! D28   D(41,7,8,44)          177.9604         calculate D2E/DX2 analytically  !
 ! D29   D(42,7,8,12)           56.2768         calculate D2E/DX2 analytically  !
 ! D30   D(42,7,8,43)          177.7075         calculate D2E/DX2 analytically  !
 ! D31   D(42,7,8,44)          -64.9659         calculate D2E/DX2 analytically  !
 ! D32   D(8,7,11,15)         -178.0734         calculate D2E/DX2 analytically  !
 ! D33   D(8,7,11,49)          -56.8543         calculate D2E/DX2 analytically  !
 ! D34   D(8,7,11,50)           60.5087         calculate D2E/DX2 analytically  !
 ! D35   D(41,7,11,15)          60.3666         calculate D2E/DX2 analytically  !
 ! D36   D(41,7,11,49)        -178.4143         calculate D2E/DX2 analytically  !
 ! D37   D(41,7,11,50)         -61.0514         calculate D2E/DX2 analytically  !
 ! D38   D(42,7,11,15)         -56.7026         calculate D2E/DX2 analytically  !
 ! D39   D(42,7,11,49)          64.5165         calculate D2E/DX2 analytically  !
 ! D40   D(42,7,11,50)        -178.1205         calculate D2E/DX2 analytically  !
 ! D41   D(7,8,12,16)         -179.2738         calculate D2E/DX2 analytically  !
 ! D42   D(7,8,12,51)          -57.8748         calculate D2E/DX2 analytically  !
 ! D43   D(7,8,12,52)           59.203          calculate D2E/DX2 analytically  !
 ! D44   D(43,8,12,16)          59.3159         calculate D2E/DX2 analytically  !
 ! D45   D(43,8,12,51)        -179.2852         calculate D2E/DX2 analytically  !
 ! D46   D(43,8,12,52)         -62.2074         calculate D2E/DX2 analytically  !
 ! D47   D(44,8,12,16)         -58.0024         calculate D2E/DX2 analytically  !
 ! D48   D(44,8,12,51)          63.3965         calculate D2E/DX2 analytically  !
 ! D49   D(44,8,12,52)        -179.5256         calculate D2E/DX2 analytically  !
 ! D50   D(13,9,10,14)         177.0996         calculate D2E/DX2 analytically  !
 ! D51   D(13,9,10,47)         -61.5212         calculate D2E/DX2 analytically  !
 ! D52   D(13,9,10,48)          55.7948         calculate D2E/DX2 analytically  !
 ! D53   D(45,9,10,14)         -61.3447         calculate D2E/DX2 analytically  !
 ! D54   D(45,9,10,47)          60.0345         calculate D2E/DX2 analytically  !
 ! D55   D(45,9,10,48)         177.3505         calculate D2E/DX2 analytically  !
 ! D56   D(46,9,10,14)          55.8037         calculate D2E/DX2 analytically  !
 ! D57   D(46,9,10,47)         177.1829         calculate D2E/DX2 analytically  !
 ! D58   D(46,9,10,48)         -65.5011         calculate D2E/DX2 analytically  !
 ! D59   D(10,9,13,17)         177.8627         calculate D2E/DX2 analytically  !
 ! D60   D(10,9,13,53)         -60.8261         calculate D2E/DX2 analytically  !
 ! D61   D(10,9,13,54)          56.5001         calculate D2E/DX2 analytically  !
 ! D62   D(45,9,13,17)          56.3525         calculate D2E/DX2 analytically  !
 ! D63   D(45,9,13,53)         177.6637         calculate D2E/DX2 analytically  !
 ! D64   D(45,9,13,54)         -65.0101         calculate D2E/DX2 analytically  !
 ! D65   D(46,9,13,17)         -60.8026         calculate D2E/DX2 analytically  !
 ! D66   D(46,9,13,53)          60.5086         calculate D2E/DX2 analytically  !
 ! D67   D(46,9,13,54)         177.8348         calculate D2E/DX2 analytically  !
 ! D68   D(9,10,14,18)         177.9969         calculate D2E/DX2 analytically  !
 ! D69   D(9,10,14,55)         -60.6406         calculate D2E/DX2 analytically  !
 ! D70   D(9,10,14,56)          56.5305         calculate D2E/DX2 analytically  !
 ! D71   D(47,10,14,18)         56.6565         calculate D2E/DX2 analytically  !
 ! D72   D(47,10,14,55)        178.019          calculate D2E/DX2 analytically  !
 ! D73   D(47,10,14,56)        -64.8099         calculate D2E/DX2 analytically  !
 ! D74   D(48,10,14,18)        -60.6507         calculate D2E/DX2 analytically  !
 ! D75   D(48,10,14,55)         60.7118         calculate D2E/DX2 analytically  !
 ! D76   D(48,10,14,56)        177.883          calculate D2E/DX2 analytically  !
 ! D77   D(7,11,15,19)         177.6671         calculate D2E/DX2 analytically  !
 ! D78   D(7,11,15,57)         -60.8286         calculate D2E/DX2 analytically  !
 ! D79   D(7,11,15,58)          56.2671         calculate D2E/DX2 analytically  !
 ! D80   D(49,11,15,19)         56.4803         calculate D2E/DX2 analytically  !
 ! D81   D(49,11,15,57)        177.9846         calculate D2E/DX2 analytically  !
 ! D82   D(49,11,15,58)        -64.9197         calculate D2E/DX2 analytically  !
 ! D83   D(50,11,15,19)        -60.9052         calculate D2E/DX2 analytically  !
 ! D84   D(50,11,15,57)         60.5991         calculate D2E/DX2 analytically  !
 ! D85   D(50,11,15,58)        177.6948         calculate D2E/DX2 analytically  !
 ! D86   D(8,12,16,20)         178.3035         calculate D2E/DX2 analytically  !
 ! D87   D(8,12,16,59)         -60.2985         calculate D2E/DX2 analytically  !
 ! D88   D(8,12,16,60)          57.0236         calculate D2E/DX2 analytically  !
 ! D89   D(51,12,16,20)         56.9086         calculate D2E/DX2 analytically  !
 ! D90   D(51,12,16,59)        178.3066         calculate D2E/DX2 analytically  !
 ! D91   D(51,12,16,60)        -64.3713         calculate D2E/DX2 analytically  !
 ! D92   D(52,12,16,20)        -60.1669         calculate D2E/DX2 analytically  !
 ! D93   D(52,12,16,59)         61.2311         calculate D2E/DX2 analytically  !
 ! D94   D(52,12,16,60)        178.5532         calculate D2E/DX2 analytically  !
 ! D95   D(9,13,17,21)         175.8514         calculate D2E/DX2 analytically  !
 ! D96   D(9,13,17,61)         -62.5601         calculate D2E/DX2 analytically  !
 ! D97   D(9,13,17,62)          54.597          calculate D2E/DX2 analytically  !
 ! D98   D(53,13,17,21)         54.6141         calculate D2E/DX2 analytically  !
 ! D99   D(53,13,17,61)        176.2026         calculate D2E/DX2 analytically  !
 ! D100  D(53,13,17,62)        -66.6403         calculate D2E/DX2 analytically  !
 ! D101  D(54,13,17,21)        -62.7432         calculate D2E/DX2 analytically  !
 ! D102  D(54,13,17,61)         58.8453         calculate D2E/DX2 analytically  !
 ! D103  D(54,13,17,62)        176.0024         calculate D2E/DX2 analytically  !
 ! D104  D(10,14,18,22)        178.4924         calculate D2E/DX2 analytically  !
 ! D105  D(10,14,18,63)        -60.1663         calculate D2E/DX2 analytically  !
 ! D106  D(10,14,18,64)         57.1357         calculate D2E/DX2 analytically  !
 ! D107  D(55,14,18,22)         57.1505         calculate D2E/DX2 analytically  !
 ! D108  D(55,14,18,63)        178.4918         calculate D2E/DX2 analytically  !
 ! D109  D(55,14,18,64)        -64.2062         calculate D2E/DX2 analytically  !
 ! D110  D(56,14,18,22)        -60.0168         calculate D2E/DX2 analytically  !
 ! D111  D(56,14,18,63)         61.3244         calculate D2E/DX2 analytically  !
 ! D112  D(56,14,18,64)        178.6264         calculate D2E/DX2 analytically  !
 ! D113  D(11,15,19,23)       -175.4433         calculate D2E/DX2 analytically  !
 ! D114  D(11,15,19,65)        -54.3166         calculate D2E/DX2 analytically  !
 ! D115  D(11,15,19,66)         63.2288         calculate D2E/DX2 analytically  !
 ! D116  D(57,15,19,23)         63.0055         calculate D2E/DX2 analytically  !
 ! D117  D(57,15,19,65)       -175.8678         calculate D2E/DX2 analytically  !
 ! D118  D(57,15,19,66)        -58.3224         calculate D2E/DX2 analytically  !
 ! D119  D(58,15,19,23)        -54.0798         calculate D2E/DX2 analytically  !
 ! D120  D(58,15,19,65)         67.0469         calculate D2E/DX2 analytically  !
 ! D121  D(58,15,19,66)       -175.4077         calculate D2E/DX2 analytically  !
 ! D122  D(12,16,20,24)       -179.9059         calculate D2E/DX2 analytically  !
 ! D123  D(12,16,20,67)        -58.4678         calculate D2E/DX2 analytically  !
 ! D124  D(12,16,20,68)         58.6009         calculate D2E/DX2 analytically  !
 ! D125  D(59,16,20,24)         58.7144         calculate D2E/DX2 analytically  !
 ! D126  D(59,16,20,67)       -179.8475         calculate D2E/DX2 analytically  !
 ! D127  D(59,16,20,68)        -62.7788         calculate D2E/DX2 analytically  !
 ! D128  D(60,16,20,24)        -58.6045         calculate D2E/DX2 analytically  !
 ! D129  D(60,16,20,67)         62.8336         calculate D2E/DX2 analytically  !
 ! D130  D(60,16,20,68)        179.9023         calculate D2E/DX2 analytically  !
 ! D131  D(13,17,21,25)        178.3274         calculate D2E/DX2 analytically  !
 ! D132  D(13,17,21,69)        -60.4499         calculate D2E/DX2 analytically  !
 ! D133  D(13,17,21,70)         56.9792         calculate D2E/DX2 analytically  !
 ! D134  D(61,17,21,25)         56.8159         calculate D2E/DX2 analytically  !
 ! D135  D(61,17,21,69)        178.0385         calculate D2E/DX2 analytically  !
 ! D136  D(61,17,21,70)        -64.5324         calculate D2E/DX2 analytically  !
 ! D137  D(62,17,21,25)        -60.3379         calculate D2E/DX2 analytically  !
 ! D138  D(62,17,21,69)         60.8847         calculate D2E/DX2 analytically  !
 ! D139  D(62,17,21,70)        178.3139         calculate D2E/DX2 analytically  !
 ! D140  D(14,18,22,26)        178.0314         calculate D2E/DX2 analytically  !
 ! D141  D(14,18,22,71)        -60.5674         calculate D2E/DX2 analytically  !
 ! D142  D(14,18,22,72)         56.6068         calculate D2E/DX2 analytically  !
 ! D143  D(63,18,22,26)         56.7208         calculate D2E/DX2 analytically  !
 ! D144  D(63,18,22,71)        178.122          calculate D2E/DX2 analytically  !
 ! D145  D(63,18,22,72)        -64.7038         calculate D2E/DX2 analytically  !
 ! D146  D(64,18,22,26)        -60.5795         calculate D2E/DX2 analytically  !
 ! D147  D(64,18,22,71)         60.8217         calculate D2E/DX2 analytically  !
 ! D148  D(64,18,22,72)        177.9959         calculate D2E/DX2 analytically  !
 ! D149  D(15,19,23,27)       -179.854          calculate D2E/DX2 analytically  !
 ! D150  D(15,19,23,73)        -58.8384         calculate D2E/DX2 analytically  !
 ! D151  D(15,19,23,74)         58.8863         calculate D2E/DX2 analytically  !
 ! D152  D(65,19,23,27)         59.0004         calculate D2E/DX2 analytically  !
 ! D153  D(65,19,23,73)       -179.984          calculate D2E/DX2 analytically  !
 ! D154  D(65,19,23,74)        -62.2594         calculate D2E/DX2 analytically  !
 ! D155  D(66,19,23,27)        -58.6074         calculate D2E/DX2 analytically  !
 ! D156  D(66,19,23,73)         62.4082         calculate D2E/DX2 analytically  !
 ! D157  D(66,19,23,74)       -179.8671         calculate D2E/DX2 analytically  !
 ! D158  D(16,20,24,28)        178.9014         calculate D2E/DX2 analytically  !
 ! D159  D(16,20,24,75)        -59.7376         calculate D2E/DX2 analytically  !
 ! D160  D(16,20,24,76)         57.6038         calculate D2E/DX2 analytically  !
 ! D161  D(67,20,24,28)         57.4735         calculate D2E/DX2 analytically  !
 ! D162  D(67,20,24,75)        178.8345         calculate D2E/DX2 analytically  !
 ! D163  D(67,20,24,76)        -63.8241         calculate D2E/DX2 analytically  !
 ! D164  D(68,20,24,28)        -59.6002         calculate D2E/DX2 analytically  !
 ! D165  D(68,20,24,75)         61.7607         calculate D2E/DX2 analytically  !
 ! D166  D(68,20,24,76)        179.1021         calculate D2E/DX2 analytically  !
 ! D167  D(17,21,25,30)        176.7792         calculate D2E/DX2 analytically  !
 ! D168  D(17,21,25,77)        -61.8937         calculate D2E/DX2 analytically  !
 ! D169  D(17,21,25,78)         55.6454         calculate D2E/DX2 analytically  !
 ! D170  D(69,21,25,30)         55.6736         calculate D2E/DX2 analytically  !
 ! D171  D(69,21,25,77)        177.0007         calculate D2E/DX2 analytically  !
 ! D172  D(69,21,25,78)        -65.4603         calculate D2E/DX2 analytically  !
 ! D173  D(70,21,25,30)        -61.865          calculate D2E/DX2 analytically  !
 ! D174  D(70,21,25,77)         59.4621         calculate D2E/DX2 analytically  !
 ! D175  D(70,21,25,78)        177.0012         calculate D2E/DX2 analytically  !
 ! D176  D(18,22,26,29)        179.7559         calculate D2E/DX2 analytically  !
 ! D177  D(18,22,26,79)        -58.9425         calculate D2E/DX2 analytically  !
 ! D178  D(18,22,26,80)         58.3668         calculate D2E/DX2 analytically  !
 ! D179  D(71,22,26,29)         58.3681         calculate D2E/DX2 analytically  !
 ! D180  D(71,22,26,79)        179.6697         calculate D2E/DX2 analytically  !
 ! D181  D(71,22,26,80)        -63.021          calculate D2E/DX2 analytically  !
 ! D182  D(72,22,26,29)        -58.807          calculate D2E/DX2 analytically  !
 ! D183  D(72,22,26,79)         62.4946         calculate D2E/DX2 analytically  !
 ! D184  D(72,22,26,80)        179.8038         calculate D2E/DX2 analytically  !
 ! D185  D(19,23,27,31)       -175.0443         calculate D2E/DX2 analytically  !
 ! D186  D(19,23,27,81)        -55.341          calculate D2E/DX2 analytically  !
 ! D187  D(19,23,27,82)         64.6159         calculate D2E/DX2 analytically  !
 ! D188  D(73,23,27,31)         63.4806         calculate D2E/DX2 analytically  !
 ! D189  D(73,23,27,81)       -176.8161         calculate D2E/DX2 analytically  !
 ! D190  D(73,23,27,82)        -56.8592         calculate D2E/DX2 analytically  !
 ! D191  D(74,23,27,31)        -53.8431         calculate D2E/DX2 analytically  !
 ! D192  D(74,23,27,81)         65.8603         calculate D2E/DX2 analytically  !
 ! D193  D(74,23,27,82)       -174.1828         calculate D2E/DX2 analytically  !
 ! D194  D(20,24,28,33)        179.7151         calculate D2E/DX2 analytically  !
 ! D195  D(20,24,28,83)        -58.7396         calculate D2E/DX2 analytically  !
 ! D196  D(20,24,28,84)         58.1352         calculate D2E/DX2 analytically  !
 ! D197  D(75,24,28,33)         58.3374         calculate D2E/DX2 analytically  !
 ! D198  D(75,24,28,83)        179.8827         calculate D2E/DX2 analytically  !
 ! D199  D(75,24,28,84)        -63.2426         calculate D2E/DX2 analytically  !
 ! D200  D(76,24,28,33)        -58.933          calculate D2E/DX2 analytically  !
 ! D201  D(76,24,28,83)         62.6123         calculate D2E/DX2 analytically  !
 ! D202  D(76,24,28,84)        179.4871         calculate D2E/DX2 analytically  !
 ! D203  D(21,25,30,35)       -175.5662         calculate D2E/DX2 analytically  !
 ! D204  D(21,25,30,87)        -56.8298         calculate D2E/DX2 analytically  !
 ! D205  D(21,25,30,88)         62.558          calculate D2E/DX2 analytically  !
 ! D206  D(77,25,30,35)         63.1122         calculate D2E/DX2 analytically  !
 ! D207  D(77,25,30,87)       -178.1514         calculate D2E/DX2 analytically  !
 ! D208  D(77,25,30,88)        -58.7635         calculate D2E/DX2 analytically  !
 ! D209  D(78,25,30,35)        -54.0042         calculate D2E/DX2 analytically  !
 ! D210  D(78,25,30,87)         64.7322         calculate D2E/DX2 analytically  !
 ! D211  D(78,25,30,88)       -175.8799         calculate D2E/DX2 analytically  !
 ! D212  D(22,26,29,34)        178.5037         calculate D2E/DX2 analytically  !
 ! D213  D(22,26,29,85)        -60.013          calculate D2E/DX2 analytically  !
 ! D214  D(22,26,29,86)         56.9275         calculate D2E/DX2 analytically  !
 ! D215  D(79,26,29,34)         57.1719         calculate D2E/DX2 analytically  !
 ! D216  D(79,26,29,85)        178.6552         calculate D2E/DX2 analytically  !
 ! D217  D(79,26,29,86)        -64.4043         calculate D2E/DX2 analytically  !
 ! D218  D(80,26,29,34)        -60.0605         calculate D2E/DX2 analytically  !
 ! D219  D(80,26,29,85)         61.4228         calculate D2E/DX2 analytically  !
 ! D220  D(80,26,29,86)        178.3633         calculate D2E/DX2 analytically  !
 ! D221  D(23,27,31,1)         -66.6178         calculate D2E/DX2 analytically  !
 ! D222  D(23,27,31,3)         113.9262         calculate D2E/DX2 analytically  !
 ! D223  D(81,27,31,1)         172.1342         calculate D2E/DX2 analytically  !
 ! D224  D(81,27,31,3)          -7.3218         calculate D2E/DX2 analytically  !
 ! D225  D(82,27,31,1)          54.4355         calculate D2E/DX2 analytically  !
 ! D226  D(82,27,31,3)        -125.0205         calculate D2E/DX2 analytically  !
 ! D227  D(24,28,33,90)        179.8886         calculate D2E/DX2 analytically  !
 ! D228  D(24,28,33,91)         59.9155         calculate D2E/DX2 analytically  !
 ! D229  D(24,28,33,92)        -60.1286         calculate D2E/DX2 analytically  !
 ! D230  D(83,28,33,90)         58.4647         calculate D2E/DX2 analytically  !
 ! D231  D(83,28,33,91)        -61.5084         calculate D2E/DX2 analytically  !
 ! D232  D(83,28,33,92)        178.4476         calculate D2E/DX2 analytically  !
 ! D233  D(84,28,33,90)        -58.6364         calculate D2E/DX2 analytically  !
 ! D234  D(84,28,33,91)       -178.6095         calculate D2E/DX2 analytically  !
 ! D235  D(84,28,33,92)         61.3465         calculate D2E/DX2 analytically  !
 ! D236  D(26,29,34,93)        179.7331         calculate D2E/DX2 analytically  !
 ! D237  D(26,29,34,94)         59.732          calculate D2E/DX2 analytically  !
 ! D238  D(26,29,34,95)        -60.2583         calculate D2E/DX2 analytically  !
 ! D239  D(85,29,34,93)         58.3777         calculate D2E/DX2 analytically  !
 ! D240  D(85,29,34,94)        -61.6234         calculate D2E/DX2 analytically  !
 ! D241  D(85,29,34,95)        178.3863         calculate D2E/DX2 analytically  !
 ! D242  D(86,29,34,93)        -58.8866         calculate D2E/DX2 analytically  !
 ! D243  D(86,29,34,94)       -178.8877         calculate D2E/DX2 analytically  !
 ! D244  D(86,29,34,95)         61.122          calculate D2E/DX2 analytically  !
 ! D245  D(25,30,35,2)        -139.8516         calculate D2E/DX2 analytically  !
 ! D246  D(25,30,35,5)          41.7428         calculate D2E/DX2 analytically  !
 ! D247  D(87,30,35,2)          99.6666         calculate D2E/DX2 analytically  !
 ! D248  D(87,30,35,5)         -78.739          calculate D2E/DX2 analytically  !
 ! D249  D(88,30,35,2)         -17.485          calculate D2E/DX2 analytically  !
 ! D250  D(88,30,35,5)         164.1094         calculate D2E/DX2 analytically  !
 ! D251  D(1,32,36,2)           73.6445         calculate D2E/DX2 analytically  !
 ! D252  D(1,32,36,96)         -49.505          calculate D2E/DX2 analytically  !
 ! D253  D(1,32,36,97)        -172.0053         calculate D2E/DX2 analytically  !
 ! D254  D(37,32,36,2)        -168.7309         calculate D2E/DX2 analytically  !
 ! D255  D(37,32,36,96)         68.1196         calculate D2E/DX2 analytically  !
 ! D256  D(37,32,36,97)        -54.3807         calculate D2E/DX2 analytically  !
 ! D257  D(89,32,36,2)         -45.8533         calculate D2E/DX2 analytically  !
 ! D258  D(89,32,36,96)       -169.0028         calculate D2E/DX2 analytically  !
 ! D259  D(89,32,36,97)         68.4969         calculate D2E/DX2 analytically  !
 ! D260  D(1,32,37,4)         -179.6645         calculate D2E/DX2 analytically  !
 ! D261  D(1,32,37,98)          61.0823         calculate D2E/DX2 analytically  !
 ! D262  D(1,32,37,99)         -60.1005         calculate D2E/DX2 analytically  !
 ! D263  D(36,32,37,4)          64.2511         calculate D2E/DX2 analytically  !
 ! D264  D(36,32,37,98)        -55.0021         calculate D2E/DX2 analytically  !
 ! D265  D(36,32,37,99)       -176.185          calculate D2E/DX2 analytically  !
 ! D266  D(89,32,37,4)         -58.8985         calculate D2E/DX2 analytically  !
 ! D267  D(89,32,37,98)       -178.1517         calculate D2E/DX2 analytically  !
 ! D268  D(89,32,37,99)         60.6655         calculate D2E/DX2 analytically  !
 ! D269  D(4,38,39,6)         -174.1931         calculate D2E/DX2 analytically  !
 ! D270  D(4,38,39,102)         66.4722         calculate D2E/DX2 analytically  !
 ! D271  D(4,38,39,103)        -55.0014         calculate D2E/DX2 analytically  !
 ! D272  D(100,38,39,6)         66.5728         calculate D2E/DX2 analytically  !
 ! D273  D(100,38,39,102)      -52.7618         calculate D2E/DX2 analytically  !
 ! D274  D(100,38,39,103)     -174.2354         calculate D2E/DX2 analytically  !
 ! D275  D(101,38,39,6)        -55.0705         calculate D2E/DX2 analytically  !
 ! D276  D(101,38,39,102)     -174.4052         calculate D2E/DX2 analytically  !
 ! D277  D(101,38,39,103)       64.1213         calculate D2E/DX2 analytically  !
 --------------------------------------------------------------------------------
 Trust Radius=3.00D-01 FncErr=1.00D-07 GrdErr=1.00D-07
 Number of steps in this run=    594 maximum allowed number of steps=    636.
 GradGradGradGradGradGradGradGradGradGradGradGradGradGradGradGradGradGrad

 Stoichiometry    C34H66O6
 Framework group  C1[X(C34H66O6)]
 Deg. of freedom   312
 Full point group                 C1      NOp   1
 Largest Abelian subgroup         C1      NOp   1
 Largest concise Abelian subgroup C1      NOp   1
                         Standard orientation:                         
 ---------------------------------------------------------------------
 Center     Atomic      Atomic             Coordinates (Angstroms)
 Number     Number       Type             X           Y           Z
 ---------------------------------------------------------------------
      1          8           0        5.610636    1.115679    0.197679
      2          8           0        5.196231   -1.741939    0.227079
      3          8           0        5.947995    2.106349   -1.781757
      4          8           0        8.964621   -0.228383   -0.147519
      5          8           0        4.133139   -1.453339    2.182360
      6          8           0       12.537880   -0.396472   -0.261515
      7          6           0       -2.126576    1.917805    0.175774
      8          6           0       -3.388815    2.745762    0.285681
      9          6           0       -3.338000   -1.799422    0.254524
     10          6           0       -4.537564   -2.403636   -0.443177
     11          6           0       -0.891485    2.793055    0.173887
     12          6           0       -4.622914    1.871226    0.229427
     13          6           0       -2.044566   -2.405939   -0.245901
     14          6           0       -5.830477   -1.844694    0.110880
     15          6           0        0.363834    1.962473    0.016512
     16          6           0       -5.888220    2.696842    0.321222
     17          6           0       -0.847643   -1.760293    0.418401
     18          6           0       -7.032130   -2.408856   -0.616179
     19          6           0        1.600277    2.834369   -0.043495
     20          6           0       -7.119719    1.822450    0.222992
     21          6           0        0.444399   -2.428991   -0.000549
     22          6           0       -8.323479   -1.875117   -0.034369
     23          6           0        2.832264    1.997571   -0.312246
     24          6           0       -8.388281    2.643160    0.311909
     25          6           0        1.634433   -1.747234    0.639170
     26          6           0       -9.526643   -2.398701   -0.788458
     27          6           0        4.077269    2.859096   -0.371019
     28          6           0       -9.616936    1.767579    0.186326
     29          6           0      -10.817030   -1.867829   -0.200491
     30          6           0        2.924491   -2.458753    0.287624
     31          6           0        5.270074    2.037642   -0.755781
     32          6           0        6.625592    0.152058   -0.129007
     33          6           0      -10.886272    2.573608    0.280392
     34          6           0      -12.017585   -2.356099   -0.968691
     35          6           0        4.079086   -1.837712    1.013671
     36          6           0        6.346329   -1.069946    0.747409
     37          6           0        7.993742    0.755506    0.198699
     38          6           0       10.293139    0.288532   -0.074553
     39          6           0       11.207676   -0.868153   -0.466067
     40          6           0       13.512141   -1.366893   -0.605292
     41          1           0       -2.074519    1.193067    1.031420
     42          1           0       -2.157256    1.308896   -0.766965
     43          1           0       -3.378515    3.322887    1.247561
     44          1           0       -3.421276    3.494927   -0.549052
     45          1           0       -3.324598   -0.687645    0.086746
     46          1           0       -3.424998   -1.963703    1.361161
     47          1           0       -4.477166   -2.195095   -1.543866
     48          1           0       -4.525480   -3.518434   -0.317133
     49          1           0       -0.958988    3.535824   -0.664514
     50          1           0       -0.840567    3.377117    1.130154
     51          1           0       -4.624964    1.284685   -0.727827
     52          1           0       -4.596520    1.126620    1.069025
     53          1           0       -2.042255   -3.508677   -0.038819
     54          1           0       -1.972536   -2.278504   -1.358131
     55          1           0       -5.905399   -2.086032    1.204092
     56          1           0       -5.827020   -0.723860    0.020306
     57          1           0        0.451419    1.243941    0.874756
     58          1           0        0.291538    1.347320   -0.919835
     59          1           0       -5.901377    3.259467    1.291682
     60          1           0       -5.901400    3.458460   -0.502591
     61          1           0       -0.812890   -0.668280    0.152706
     62          1           0       -0.956674   -1.824007    1.533525
     63          1           0       -6.971348   -2.144004   -1.704744
     64          1           0       -7.023063   -3.528640   -0.547824
     65          1           0        1.482056    3.602644   -0.852729
     66          1           0        1.719983    3.387148    0.925101
     67          1           0       -7.103792    1.258002   -0.747293
     68          1           0       -7.106492    1.058933    1.045832
     69          1           0        0.421402   -3.510382    0.297948
     70          1           0        0.543799   -2.395428   -1.117422
     71          1           0       -8.399029   -2.170108    1.045482
     72          1           0       -8.316752   -0.751145   -0.069412
     73          1           0        2.955280    1.226415    0.494931
     74          1           0        2.707939    1.448900   -1.283325
     75          1           0       -8.414943    3.190928    1.290569
     76          1           0       -8.394337    3.417145   -0.500248
     77          1           0        1.686894   -0.678473    0.295458
     78          1           0        1.512985   -1.729869    1.755362
     79          1           0       -9.454370   -2.098689   -1.867173
     80          1           0       -9.532772   -3.520101   -0.757421
     81          1           0        3.957629    3.675640   -1.131295
     82          1           0        4.267908    3.328628    0.629993
     83          1           0       -9.588144    1.222564   -0.794960
     84          1           0       -9.604499    0.987757    0.994098
     85          1           0      -10.898758   -2.189891    0.871339
     86          1           0      -10.794789   -0.744198   -0.205677
     87          1           0        2.872784   -3.537576    0.595575
     88          1           0        3.107183   -2.424505   -0.818454
     89          1           0        6.567499   -0.116265   -1.219229
     90          1           0      -11.776044    1.905518    0.182941
     91          1           0      -10.928872    3.339341   -0.531544
     92          1           0      -10.946888    3.101780    1.262610
     93          1           0      -12.957161   -1.957167   -0.515823
     94          1           0      -12.066366   -3.471904   -0.956649
     95          1           0      -11.968656   -2.020050   -2.032743
     96          1           0        6.206339   -0.773689    1.818585
     97          1           0        7.196716   -1.795526    0.637448
     98          1           0        8.074598    0.996135    1.291206
     99          1           0        8.143377    1.688599   -0.407236
    100          1           0       10.411530    1.147894   -0.784684
    101          1           0       10.513932    0.633936    0.969112
    102          1           0       11.057935   -1.147127   -1.541512
    103          1           0       11.013938   -1.764049    0.180000
    104          1           0       14.489648   -0.865073   -0.395780
    105          1           0       13.433772   -1.638644   -1.687058
    106          1           0       13.396906   -2.282339    0.026284
 ---------------------------------------------------------------------
 Rotational constants (GHZ):      0.1967570      0.0177096      0.0165405
 Standard basis: VSTO-6G (5D, 7F)
 There are   226 symmetry adapted cartesian basis functions of A   symmetry.
 There are   226 symmetry adapted basis functions of A   symmetry.
   226 basis functions,  1356 primitive gaussians,   226 cartesian basis functions
   119 alpha electrons      119 beta electrons
       nuclear repulsion energy      2645.5854172991 Hartrees.
 Integral buffers will be    131072 words long.
 Regular integral format.
 Two-electron integral symmetry is turned off.
 Do NDO integrals.
 One-electron integrals computed using PRISM.
 NBasis=   226 RedAO= F EigKep=  0.00D+00  NBF=   226
 NBsUse=   226 1.00D-04 EigRej=  0.00D+00 NBFU=   226
 Simple Huckel Guess.
 Overlap will be assumed to be unity.
 Keep J ints in memory in canonical form, NReq=1213931.
 Requested convergence on RMS density matrix=1.00D-08 within 128 cycles.
 Requested convergence on MAX density matrix=1.00D-06.
 Requested convergence on             energy=1.00D-06.
 No special actions if energy rises.
 SCF Done:  E(RAM1) = -0.701979230942     A.U. after   14 cycles
            NFock= 13  Conv=0.72D-08     -V/T= 0.9962
 Range of M.O.s used for correlation:     1   226
 NBasis=   226 NAE=   119 NBE=   119 NFC=     0 NFV=     0
 NROrb=    226 NOA=   119 NOB=   119 NVA=   107 NVB=   107
 Symmetrizing basis deriv contribution to polar:
 IMax=3 JMax=2 DiffMx= 0.00D+00
 G2DrvN: will do   107 centers at a time, making    1 passes.
 Calling FoFCou, ICntrl=  3107 FMM=F I1Cent=   0 AccDes= 0.00D+00.
 End of G2Drv F.D. properties file   721 does not exist.
 End of G2Drv F.D. properties file   722 does not exist.
 End of G2Drv F.D. properties file   788 does not exist.
          IDoAtm=11111111111111111111111111111111111111111111111111
          IDoAtm=11111111111111111111111111111111111111111111111111
          IDoAtm=111111
          Differentiating once with respect to nuclear coordinates.
          Electric field/nuclear overlap derivatives assumed to be zero.
 Keep J ints in memory in canonical form, NReq=1075474.
          There are   321 degrees of freedom in the 1st order CPHF.  IDoFFX=5 NUNeed=   321.
 LinEq1:  Iter=  0 NonCon=   318 RMS=3.51D-03 Max=9.90D-02 NDo=   318
 AX will form   321 AO Fock derivatives at one time.
 LinEq1:  Iter=  1 NonCon=   318 RMS=7.37D-04 Max=1.88D-02 NDo=   321
 LinEq1:  Iter=  2 NonCon=   318 RMS=1.42D-04 Max=3.03D-03 NDo=   321
 LinEq1:  Iter=  3 NonCon=   318 RMS=2.14D-05 Max=5.49D-04 NDo=   321
 LinEq1:  Iter=  4 NonCon=   318 RMS=3.25D-06 Max=9.24D-05 NDo=   321
 LinEq1:  Iter=  5 NonCon=   281 RMS=6.59D-07 Max=1.91D-05 NDo=   321
 LinEq1:  Iter=  6 NonCon=   124 RMS=1.18D-07 Max=5.04D-06 NDo=   321
 LinEq1:  Iter=  7 NonCon=    33 RMS=2.31D-08 Max=1.01D-06 NDo=   321
 LinEq1:  Iter=  8 NonCon=     5 RMS=4.22D-09 Max=1.66D-07 NDo=   321
 LinEq1:  Iter=  9 NonCon=     0 RMS=6.56D-10 Max=2.32D-08 NDo=   321
 Linear equations converged to 1.000D-08 1.000D-07 after     9 iterations.
 End of Minotr F.D. properties file   721 does not exist.
 End of Minotr F.D. properties file   722 does not exist.
 End of Minotr F.D. properties file   788 does not exist.

 **********************************************************************

            Population analysis using the SCF density.

 **********************************************************************

 Orbital symmetries:
       Occupied  (A) (A) (A) (A) (A) (A) (A) (A) (A) (A) (A) (A)
                 (A) (A) (A) (A) (A) (A) (A) (A) (A) (A) (A) (A)
                 (A) (A) (A) (A) (A) (A) (A) (A) (A) (A) (A) (A)
                 (A) (A) (A) (A) (A) (A) (A) (A) (A) (A) (A) (A)
                 (A) (A) (A) (A) (A) (A) (A) (A) (A) (A) (A) (A)
                 (A) (A) (A) (A) (A) (A) (A) (A) (A) (A) (A) (A)
                 (A) (A) (A) (A) (A) (A) (A) (A) (A) (A) (A) (A)
                 (A) (A) (A) (A) (A) (A) (A) (A) (A) (A) (A) (A)
                 (A) (A) (A) (A) (A) (A) (A) (A) (A) (A) (A) (A)
                 (A) (A) (A) (A) (A) (A) (A) (A) (A) (A) (A)
       Virtual   (A) (A) (A) (A) (A) (A) (A) (A) (A) (A) (A) (A)
                 (A) (A) (A) (A) (A) (A) (A) (A) (A) (A) (A) (A)
                 (A) (A) (A) (A) (A) (A) (A) (A) (A) (A) (A) (A)
                 (A) (A) (A) (A) (A) (A) (A) (A) (A) (A) (A) (A)
                 (A) (A) (A) (A) (A) (A) (A) (A) (A) (A) (A) (A)
                 (A) (A) (A) (A) (A) (A) (A) (A) (A) (A) (A) (A)
                 (A) (A) (A) (A) (A) (A) (A) (A) (A) (A) (A) (A)
                 (A) (A) (A) (A) (A) (A) (A) (A) (A) (A) (A) (A)
                 (A) (A) (A) (A) (A) (A) (A) (A) (A) (A) (A)
 The electronic state is 1-A.
 Alpha  occ. eigenvalues --   -1.51957  -1.49110  -1.45237  -1.41890  -1.41276
 Alpha  occ. eigenvalues --   -1.39457  -1.38679  -1.37098  -1.36542  -1.34883
 Alpha  occ. eigenvalues --   -1.32774  -1.31655  -1.26452  -1.25423  -1.21011
 Alpha  occ. eigenvalues --   -1.18026  -1.17566  -1.12403  -1.09858  -1.09047
 Alpha  occ. eigenvalues --   -1.02131  -1.00960  -0.99041  -0.96997  -0.92702
 Alpha  occ. eigenvalues --   -0.91736  -0.86325  -0.86204  -0.84906  -0.82792
 Alpha  occ. eigenvalues --   -0.82270  -0.81222  -0.79876  -0.79568  -0.79321
 Alpha  occ. eigenvalues --   -0.79121  -0.78618  -0.77925  -0.77384  -0.77018
 Alpha  occ. eigenvalues --   -0.69048  -0.67880  -0.66666  -0.64918  -0.63922
 Alpha  occ. eigenvalues --   -0.63668  -0.63216  -0.62963  -0.62027  -0.61615
 Alpha  occ. eigenvalues --   -0.61227  -0.60812  -0.59669  -0.59568  -0.59348
 Alpha  occ. eigenvalues --   -0.58703  -0.58416  -0.56588  -0.56352  -0.56250
 Alpha  occ. eigenvalues --   -0.55703  -0.55414  -0.55183  -0.54703  -0.54218
 Alpha  occ. eigenvalues --   -0.53498  -0.53120  -0.52960  -0.52649  -0.52519
 Alpha  occ. eigenvalues --   -0.52287  -0.51639  -0.50862  -0.50126  -0.49903
 Alpha  occ. eigenvalues --   -0.49593  -0.49532  -0.49040  -0.49020  -0.48669
 Alpha  occ. eigenvalues --   -0.48285  -0.47228  -0.47187  -0.47022  -0.46790
 Alpha  occ. eigenvalues --   -0.46197  -0.46164  -0.46087  -0.45611  -0.45016
 Alpha  occ. eigenvalues --   -0.44995  -0.44840  -0.44719  -0.44626  -0.44602
 Alpha  occ. eigenvalues --   -0.44362  -0.44264  -0.43926  -0.43703  -0.43319
 Alpha  occ. eigenvalues --   -0.43203  -0.43035  -0.42970  -0.42413  -0.42319
 Alpha  occ. eigenvalues --   -0.42120  -0.41971  -0.41626  -0.41548  -0.41291
 Alpha  occ. eigenvalues --   -0.41157  -0.41136  -0.40925  -0.40810  -0.40767
 Alpha  occ. eigenvalues --   -0.40489  -0.40420  -0.39497  -0.38857
 Alpha virt. eigenvalues --    0.03770   0.04164   0.06276   0.07096   0.08942
 Alpha virt. eigenvalues --    0.11693   0.12223   0.12453   0.12555   0.12683
 Alpha virt. eigenvalues --    0.12800   0.12892   0.13142   0.13224   0.13409
 Alpha virt. eigenvalues --    0.13498   0.13582   0.13659   0.13764   0.13992
 Alpha virt. eigenvalues --    0.14028   0.14082   0.14144   0.14254   0.14302
 Alpha virt. eigenvalues --    0.14541   0.14630   0.14709   0.14720   0.14807
 Alpha virt. eigenvalues --    0.15001   0.15122   0.15170   0.15221   0.15291
 Alpha virt. eigenvalues --    0.15308   0.15336   0.15375   0.15441   0.15513
 Alpha virt. eigenvalues --    0.15586   0.15604   0.15811   0.15886   0.15926
 Alpha virt. eigenvalues --    0.15990   0.16011   0.16088   0.16126   0.16308
 Alpha virt. eigenvalues --    0.16343   0.16363   0.16466   0.16570   0.16616
 Alpha virt. eigenvalues --    0.16666   0.16730   0.16764   0.16828   0.16842
 Alpha virt. eigenvalues --    0.16863   0.17031   0.17079   0.17224   0.17325
 Alpha virt. eigenvalues --    0.17329   0.17379   0.17396   0.17476   0.17496
 Alpha virt. eigenvalues --    0.17568   0.17626   0.17723   0.17903   0.17975
 Alpha virt. eigenvalues --    0.18053   0.18096   0.18243   0.18328   0.18395
 Alpha virt. eigenvalues --    0.18460   0.18524   0.18543   0.18624   0.18647
 Alpha virt. eigenvalues --    0.18689   0.18802   0.18964   0.19020   0.19036
 Alpha virt. eigenvalues --    0.19071   0.19116   0.19134   0.19200   0.19239
 Alpha virt. eigenvalues --    0.19335   0.19434   0.19457   0.19562   0.19622
 Alpha virt. eigenvalues --    0.19884   0.19909   0.20502   0.21901   0.22480
 Alpha virt. eigenvalues --    0.24626   0.25104
          Condensed to atoms (all electrons):
 Mulliken charges:
               1
     1  O   -0.276335
     2  O   -0.279905
     3  O   -0.349872
     4  O   -0.285807
     5  O   -0.349172
     6  O   -0.280954
     7  C   -0.160442
     8  C   -0.157255
     9  C   -0.162198
    10  C   -0.156746
    11  C   -0.157316
    12  C   -0.160480
    13  C   -0.156873
    14  C   -0.162224
    15  C   -0.160383
    16  C   -0.157171
    17  C   -0.161817
    18  C   -0.156674
    19  C   -0.157177
    20  C   -0.160674
    21  C   -0.156901
    22  C   -0.162487
    23  C   -0.158270
    24  C   -0.157460
    25  C   -0.160712
    26  C   -0.157303
    27  C   -0.153850
    28  C   -0.161815
    29  C   -0.161678
    30  C   -0.156180
    31  C    0.304956
    32  C    0.020092
    33  C   -0.210607
    34  C   -0.210122
    35  C    0.307928
    36  C   -0.020559
    37  C   -0.040428
    38  C   -0.020780
    39  C   -0.025622
    40  C   -0.071145
    41  H    0.080573
    42  H    0.079784
    43  H    0.079963
    44  H    0.079634
    45  H    0.082530
    46  H    0.079622
    47  H    0.078567
    48  H    0.079053
    49  H    0.080147
    50  H    0.081054
    51  H    0.080111
    52  H    0.080101
    53  H    0.079650
    54  H    0.078985
    55  H    0.078924
    56  H    0.082474
    57  H    0.083117
    58  H    0.079956
    59  H    0.079484
    60  H    0.079410
    61  H    0.082959
    62  H    0.082563
    63  H    0.078409
    64  H    0.078804
    65  H    0.081835
    66  H    0.083748
    67  H    0.080194
    68  H    0.079816
    69  H    0.081515
    70  H    0.080562
    71  H    0.078583
    72  H    0.082417
    73  H    0.101661
    74  H    0.088435
    75  H    0.079223
    76  H    0.079258
    77  H    0.088800
    78  H    0.103848
    79  H    0.078372
    80  H    0.078697
    81  H    0.117721
    82  H    0.118395
    83  H    0.079387
    84  H    0.078875
    85  H    0.077621
    86  H    0.079985
    87  H    0.118158
    88  H    0.117547
    89  H    0.134742
    90  H    0.072019
    91  H    0.072242
    92  H    0.072167
    93  H    0.071579
    94  H    0.071808
    95  H    0.071637
    96  H    0.127841
    97  H    0.124540
    98  H    0.080482
    99  H    0.094330
   100  H    0.084607
   101  H    0.082568
   102  H    0.080202
   103  H    0.079663
   104  H    0.099691
   105  H    0.061176
   106  H    0.060598
 Sum of Mulliken charges =   0.00000
 Mulliken charges with hydrogens summed into heavy atoms:
               1
     1  O   -0.276335
     2  O   -0.279905
     3  O   -0.349872
     4  O   -0.285807
     5  O   -0.349172
     6  O   -0.280954
     7  C   -0.000085
     8  C    0.002342
     9  C   -0.000046
    10  C    0.000875
    11  C    0.003884
    12  C   -0.000268
    13  C    0.001762
    14  C   -0.000826
    15  C    0.002690
    16  C    0.001723
    17  C    0.003705
    18  C    0.000539
    19  C    0.008406
    20  C   -0.000664
    21  C    0.005176
    22  C   -0.001487
    23  C    0.031826
    24  C    0.001021
[...]
 1543,-0.00001195,-0.00001665,0.00001802,-0.00009198,-0.00001351,-0.000
 03750,0.00007993,0.00005752,-0.00000406,-0.04512389,-0.02656348,0.0514
 3009,-0.00001141,0.00000281,0.00000094,-0.00000744,-0.00000683,-0.0000
 0122,-0.00000547,0.,0.00000143,-0.00009750,-0.00004404,0.00000975,-0.0
 0000133,-0.00000159,-0.00000145,-0.00786034,0.02060146,-0.02764972,-0.
 00000005,0.00000011,-0.00000003,-0.00000004,-0.00000011,0.,-0.00000002
 ,-0.00000004,0.00000002,0.,-0.00000002,-0.00000002,-0.00000009,-0.0000
 0023,0.,-0.00000003,0.00000005,-0.00000002,0.,-0.00000003,-0.00000005,
 0.,-0.00000002,0.,-0.00000009,0.00000027,-0.00000007,-0.00000002,-0.00
 000005,0.,-0.00000005,-0.00000008,0.00000005,0.,-0.00000001,-0.0000000
 1,-0.00000015,-0.00000048,0.00000005,-0.00000001,0.00000002,-0.0000000
 1,-0.00000002,-0.00000001,-0.00000013,0.,-0.00000002,0.,0.00000038,0.0
 0000067,-0.00000007,-0.00000001,-0.00000003,0.,-0.00000019,-0.00000034
 ,0.00000031,0.,0.,-0.00000001,0.00000003,0.,0.00000027,0.,0.00000002,0
 .,0.,-0.00000001,0.,-0.00000059,-0.00000026,-0.00000064,0.00000671,-0.
 00000406,-0.00000231,0.00000813,0.00000262,-0.00000158,-0.00000002,-0.
 00000003,0.,0.,0.,0.,0.00000473,0.00000145,0.00000386,0.00000296,0.000
 00703,0.00000152,0.00001963,-0.00002249,0.00001250,0.00017170,0.000064
 31,-0.00000919,0.00016442,0.00058380,-0.00312776,-0.04373365,-0.008323
 70,0.02552592,0.,0.00000001,0.00000002,0.,0.00000002,0.,0.00000001,0.,
 0.00000002,0.00000002,0.,0.,0.00000003,0.00000002,0.,0.,0.00000001,0.,
 0.,0.00000001,0.,-0.00000001,0.,0.00000001,0.00000003,0.,-0.00000002,0
 .00000002,0.,0.00000004,0.,0.00000001,0.,0.,0.,0.,-0.00000002,0.,0.000
 00002,0.,0.00000002,0.,0.,0.,0.,0.00000001,0.00000001,0.,0.,0.00000003
 ,0.00000004,0.,0.00000003,-0.00000003,0.,0.,0.00000001,0.00000001,0.,0
 .,0.00000005,0.00000004,0.,0.00000002,0.00000002,0.00000002,0.,0.,0.,0
 .,0.,0.,0.00000004,0.,-0.00000005,0.00000005,0.,0.00000008,0.,0.,0.,0.
 ,0.,0.,-0.00000005,0.,0.00000003,-0.00000004,0.00000005,-0.00000002,0.
 ,0.,0.,0.,0.,0.,0.00000011,0.00000012,0.00000015,0.00000003,0.00000006
 ,-0.00000012,0.,0.,0.,0.,0.,0.,0.00000015,0.00000012,-0.00000001,0.000
 00010,0.00000005,0.00000008,0.,0.,0.,0.,0.,0.,0.,0.00000002,-0.0000002
 9,0.00000018,0.00000002,0.00000026,0.,0.,0.,0.,0.,0.,0.,0.,0.,0.,0.,0.
 ,-0.00000029,0.00000036,0.00000010,-0.00000017,0.00000036,-0.00000023,
 -0.00000123,0.00000067,-0.00000214,0.,0.,0.,0.,0.,0.,0.,0.,0.,0.,0.,0.
 ,0.,0.,0.,0.,0.,0.,0.00000084,-0.00000011,0.00000061,-0.00000162,0.000
 00216,-0.00000110,0.00000069,-0.00000037,0.00000149,0.00000182,-0.0000
 0004,-0.00000090,0.00002286,-0.00001919,-0.00000709,0.00001120,-0.0000
 1663,0.00002327,-0.00034132,0.00000288,0.00056196,-0.00017547,-0.00006
 302,0.00011746,-0.00521784,-0.00830494,0.02300824,0.05195298,0.0000386
 2,-0.00002408,-0.00000774,0.00003615,0.00001659,0.00000881,0.00001056,
 -0.00000895,-0.00001107,0.00012950,0.00000889,0.00000290,0.00000794,0.
 00000145,0.00001458,0.01582000,-0.01987649,0.03107754,0.00000025,-0.00
 000045,0.00000005,0.00000013,0.00000033,-0.00000001,0.00000014,0.00000
 026,-0.00000020,0.00000010,-0.00000009,0.00000018,0.00000022,0.0000006
 3,-0.00000003,0.00000014,-0.00000024,0.00000003,0.00000017,-0.00000021
 ,0.00000030,0.00000009,0.00000014,-0.00000012,0.00000040,-0.00000095,0
 .00000012,0.00000008,0.00000020,-0.00000001,0.00000024,0.00000055,-0.0
 0000037,0.00000006,-0.00000005,0.00000011,0.00000033,0.00000126,-0.000
 00019,0.00000009,-0.00000015,0.00000002,0.00000034,-0.00000058,0.00000
 061,0.00000006,0.00000009,-0.00000008,-0.00000068,-0.00000241,0.,0.000
 00004,0.00000014,-0.00000001,0.00000005,0.00000171,-0.00000097,0.00000
 004,-0.00000003,0.00000008,-0.00000012,-0.00000163,-0.00000288,0.00000
 003,-0.00000012,0.00000002,0.00000001,0.00000007,-0.00000007,0.0000028
 5,0.00000040,0.00000361,-0.00001870,0.00002575,0.00002238,-0.00002694,
 0.00000012,0.00000136,0.00000011,0.00000011,-0.00000001,0.00000008,-0.
 00000002,0.00000007,-0.00002872,-0.00000336,-0.00002716,-0.00001234,-0
 .00001855,0.00000070,-0.00004839,0.00005093,-0.00002063,-0.00025988,-0
 .00004947,0.00001337,-0.00053763,0.00059815,0.00115345,-0.00592823,-0.
 05090447,0.04871097,-0.00000007,-0.00000002,-0.00000007,-0.00000007,-0
 .00000001,0.00000007,-0.00000003,0.,-0.00000006,-0.00000004,0.00000002
 ,0.00000005,-0.00000009,0.,0.00000001,-0.00000004,-0.00000006,-0.00000
 005,-0.00000003,0.,0.00000004,0.,-0.00000003,-0.00000004,-0.00000005,0
 .00000003,0.00000010,-0.00000004,0.00000001,-0.00000011,-0.00000004,0.
 ,0.00000004,-0.00000004,-0.00000001,-0.00000004,0.,-0.00000005,-0.0000
 0007,-0.00000004,-0.00000001,0.00000006,-0.00000002,-0.00000004,-0.000
 00003,-0.00000006,0.,0.,-0.00000015,-0.00000003,-0.00000015,-0.0000001
 4,0.,0.00000014,-0.00000002,0.,-0.00000004,-0.00000003,0.00000001,0.00
 000003,-0.00000016,0.,0.00000003,-0.00000008,-0.00000010,-0.00000011,-
 0.00000002,0.,0.00000002,0.,-0.00000002,-0.00000002,-0.00000004,0.0000
 0003,0.00000025,-0.00000008,0.00000003,-0.00000022,-0.00000003,0.,0.00
 000002,-0.00000002,0.,-0.00000002,0.,-0.00000011,-0.00000017,-0.000000
 05,-0.00000003,0.00000012,-0.00000002,-0.00000003,-0.00000002,-0.00000
 004,0.,0.,-0.00000073,-0.00000002,-0.00000031,-0.00000036,0.00000004,0
 .00000040,-0.00000002,0.,-0.00000002,-0.00000002,0.,0.00000002,-0.0000
 0039,-0.00000006,0.00000008,-0.00000033,-0.00000025,-0.00000039,-0.000
 00001,0.,0.00000002,0.,-0.00000001,-0.00000002,0.00000069,0.00000038,0
 .00000151,-0.00000024,0.00000038,-0.00000081,-0.00000001,0.,0.00000002
 ,-0.00000001,0.,-0.00000002,0.,-0.00000002,-0.00000001,-0.00000002,0.,
 0.,0.00000042,-0.00000110,-0.00000082,-0.00000038,-0.00000062,0.000000
 40,0.00000003,0.00000099,0.00000304,0.00000004,-0.00000003,0.,-0.00000
 003,0.,0.00000002,-0.00000002,-0.00000001,-0.00000002,0.00000002,0.,-0
 .00000002,-0.00000001,0.,-0.00000002,-0.00000002,0.,0.,-0.00000143,-0.
 00000023,-0.00000259,-0.00000144,-0.00000235,-0.00000253,0.00000279,-0
 .00000409,-0.00000290,0.00000138,0.00000073,0.00000525,0.00000079,0.00
 001355,0.00001882,-0.00000713,0.00000077,-0.00002489,0.00016404,-0.000
 10605,-0.00006826,0.00018574,-0.00002411,-0.00010075,-0.00658710,-0.00
 111918,0.01564191,-0.00405755,0.06841119,0.00001606,-0.00000936,-0.000
 00115,0.00001440,0.00000533,0.00000547,0.00000570,-0.00000378,-0.00000
 188,0.00002973,-0.00007762,0.00004557,0.00000207,-0.00000051,0.0000088
 7,-0.01392001,0.02049218,-0.01761314,0.00000009,-0.00000017,0.00000005
 ,0.00000004,0.00000012,0.00000001,0.00000004,0.00000008,-0.00000006,0.
 00000004,-0.00000003,0.00000007,0.00000008,0.00000024,0.00000002,0.000
 00005,-0.00000009,0.00000003,0.00000007,-0.00000007,0.00000012,0.00000
 003,0.00000005,-0.00000004,0.00000016,-0.00000038,0.00000010,0.0000000
 2,0.00000006,0.,0.00000006,0.00000018,-0.00000010,0.00000002,-0.000000
 02,0.00000004,0.00000013,0.00000051,-0.00000003,0.00000003,-0.00000005
 ,0.00000002,0.00000015,-0.00000019,0.00000024,0.00000002,0.00000003,-0
 .00000002,-0.00000025,-0.00000102,0.00000013,0.00000001,0.00000004,0.,
 -0.00000002,0.00000054,-0.00000019,0.00000001,-0.00000001,0.00000003,-
 0.00000012,-0.00000065,-0.00000078,0.00000001,-0.00000004,0.00000001,0
 .,0.00000002,-0.00000002,0.00000120,0.00000004,0.00000155,-0.00000802,
 0.00000976,0.00000550,-0.00000884,-0.00000418,0.00000304,0.00000003,0.
 00000003,0.,0.00000003,0.,0.00000003,-0.00001150,-0.00000022,-0.000014
 25,-0.00000440,-0.00000675,-0.00000026,-0.00000710,0.00003242,-0.00001
 662,0.00013631,0.00005064,-0.00001640,-0.00120571,-0.00009466,0.000112
 06,0.02121670,0.05188261,-0.26608979,-0.00000002,0.,-0.00000004,-0.000
 00003,0.,0.00000002,0.,0.,-0.00000003,-0.00000001,0.,0.00000001,-0.000
 00003,0.,0.,0.,-0.00000002,-0.00000002,-0.00000002,0.,0.00000001,0.,-0
 .00000001,-0.00000002,-0.00000002,0.00000001,0.00000003,0.,0.,-0.00000
 006,-0.00000002,0.,0.,0.,0.,-0.00000002,0.,-0.00000002,-0.00000004,-0.
 00000003,0.,0.00000002,0.,-0.00000001,-0.00000001,-0.00000001,0.,0.,-0
 .00000004,0.,-0.00000009,-0.00000007,0.,0.00000004,0.,0.,-0.00000002,0
 .,0.,0.,-0.00000005,0.,0.,0.,-0.00000004,-0.00000006,0.,0.,0.,0.,0.,-0
 .00000001,0.,0.00000001,0.00000008,0.00000001,0.,-0.00000014,-0.000000
 01,0.,0.,0.,0.,-0.00000001,-0.00000001,-0.00000003,-0.00000008,-0.0000
 0004,-0.00000001,0.00000003,0.,0.,0.,0.,0.,0.,-0.00000026,0.,-0.000000
 25,-0.00000018,0.00000002,0.00000012,0.,0.,-0.00000001,0.,0.,0.,-0.000
 00013,-0.00000002,0.,-0.00000006,-0.00000008,-0.00000025,0.,0.,0.,0.,0
 .,0.,0.00000033,0.00000011,0.00000050,0.00000011,0.00000021,-0.0000006
 5,0.,0.,0.,0.,0.,-0.00000001,0.,0.,0.,0.,0.,0.,0.00000005,-0.00000030,
 -0.00000036,-0.00000029,-0.00000018,-0.00000003,-0.00000104,0.00000057
 ,0.00000065,0.,0.,0.,0.,0.,0.,0.,0.,0.,0.,0.,-0.00000001,0.,0.,0.,0.,0
 .,0.,0.00000014,0.00000014,-0.00000204,-0.00000069,-0.00000008,-0.0000
 0195,0.00000228,-0.00000191,-0.00000219,0.00000106,0.00000092,0.000002
 84,0.00000364,-0.00000830,0.00001498,0.00003632,-0.00002740,-0.0000005
 3,-0.00058435,0.00014127,-0.00025642,0.00004779,-0.00001396,-0.0000578
 4,0.00756406,0.00628269,-0.01057288,-0.01497049,-0.07493867,0.32051592
 ,-0.00001452,0.00000673,0.00000424,-0.00000754,-0.00000728,-0.00000017
 ,-0.00000284,0.00000189,0.00000620,-0.00010288,-0.00003428,0.00001108,
 -0.00000210,-0.00000193,0.00000038,-0.00675621,0.03325018,0.00786248,-
 0.00000006,0.00000012,0.00000001,-0.00000004,-0.00000009,0.00000002,-0
 .00000003,-0.00000004,0.00000005,0.,0.,-0.00000002,-0.00000008,-0.0000
 0020,0.00000004,-0.00000003,0.00000006,0.00000001,-0.00000001,0.000000
 02,-0.00000004,-0.00000002,-0.00000002,0.00000003,-0.00000011,0.000000
 28,0.,-0.00000002,-0.00000005,0.00000002,-0.00000007,-0.00000010,0.000
 00012,0.,0.,-0.00000001,-0.00000014,-0.00000042,0.00000011,-0.00000002
 ,0.00000003,0.,-0.00000003,0.00000007,-0.00000012,-0.00000001,-0.00000
 001,0.00000002,0.00000027,0.00000071,0.00000009,-0.00000001,-0.0000000
 3,0.00000001,-0.00000016,-0.00000043,0.00000046,0.,0.,0.,0.00000011,0.
 00000050,0.00000108,0.,0.00000003,0.,0.,0.,0.00000002,-0.00000054,-0.0
 0000021,-0.00000056,0.00000602,-0.00000853,-0.00001006,0.00001053,0.00
 000150,-0.00000034,-0.00000002,-0.00000002,0.00000001,0.,0.,0.,0.00000
 494,0.00000186,0.00000193,0.00000291,0.00000750,0.00000103,0.00002195,
 -0.00002795,0.00000195,0.00016608,0.00003822,-0.00002858,0.00030642,0.
 00244465,0.00199665,-0.04563263,-0.02956844,-0.01853821,0.00000001,0.0
 0000002,0.,0.,0.,-0.00000003,0.00000002,0.,0.,0.,0.,-0.00000002,0.0000
 0003,0.00000001,0.,0.00000002,0.,0.,0.,0.,-0.00000001,0.,0.,0.,0.00000
 002,0.,-0.00000004,0.00000003,-0.00000001,0.00000001,0.,0.,-0.00000001
 ,0.,0.,0.,-0.00000002,0.,0.,-0.00000002,0.,-0.00000002,0.00000001,0.,0
 .,0.00000002,0.,0.,0.00000003,0.00000003,0.,0.00000001,0.,-0.00000005,
 0.00000001,0.,0.,0.,0.,-0.00000001,0.00000005,0.00000002,-0.00000002,0
 .00000004,0.,0.,0.,0.,0.,0.,0.,0.,0.00000002,0.,-0.00000009,0.00000006
 ,-0.00000003,0.00000003,0.,0.,0.,0.,0.,0.,-0.00000005,0.00000002,0.,-0
 .00000004,0.00000003,-0.00000004,0.,0.,0.,0.,0.,0.,0.00000020,0.000000
 07,0.,0.00000004,0.00000003,-0.00000018,0.,0.,0.,0.,0.,0.,0.00000015,0
 .00000006,-0.00000005,0.00000014,0.00000005,-0.00000002,0.,0.,0.,0.,0.
 ,0.,-0.00000016,-0.00000012,-0.00000057,0.00000021,-0.00000006,0.,0.,0
 .,0.,0.,0.,0.,0.,0.,0.,0.,0.,0.,-0.00000034,0.00000037,0.00000005,-0.0
 0000020,0.00000033,-0.00000039,-0.00000148,0.00000048,-0.00000242,0.,0
 .,0.,0.,0.,0.,0.,0.,0.,0.,0.,0.,0.,0.,0.,0.,0.,0.,0.00000116,0.0000000
 6,-0.00000009,-0.00000195,0.00000286,-0.00000103,0.00000008,0.00000107
 ,0.00000106,0.00000208,-0.00000141,-0.00000096,0.00001213,-0.00002301,
 -0.00000673,0.00002946,-0.00001454,0.00002289,-0.00018015,-0.00011816,
 -0.00004172,-0.00028354,-0.00035161,-0.00042103,-0.00617544,-0.0215169
 0,-0.01174170,0.00508665,0.00111572,0.00164494,0.05351154,0.00001818,-
 0.00001032,-0.00000293,0.00001929,0.00000864,0.00000378,0.00000797,-0.
 00000277,-0.00000409,0.00008478,0.00005978,0.00000024,0.00000471,0.000
 00072,0.00000660,0.02022694,-0.04522003,-0.00882749,0.00000014,-0.0000
 0026,0.00000004,0.00000008,0.00000020,-0.00000002,0.00000008,0.0000001
 4,-0.00000013,0.00000005,-0.00000005,0.00000010,0.00000014,0.00000037,
 -0.00000004,0.00000008,-0.00000014,0.00000002,0.00000009,-0.00000011,0
 .00000017,0.00000005,0.00000008,-0.00000008,0.00000021,-0.00000053,0.0
 0000009,0.00000005,0.00000012,-0.00000001,0.00000014,0.00000029,-0.000
 00025,0.00000003,-0.00000002,0.00000006,0.00000022,0.00000076,-0.00000
 015,0.00000005,-0.00000008,0.00000001,0.00000018,-0.00000031,0.0000003
 7,0.00000003,0.00000005,-0.00000005,-0.00000048,-0.00000131,0.00000006
 ,0.00000003,0.00000008,-0.00000001,0.00000002,0.00000092,-0.00000070,0
 .00000002,-0.00000001,0.00000005,0.00000005,-0.00000049,-0.00000123,0.
 00000002,-0.00000007,0.00000001,0.,0.00000004,-0.00000004,0.00000146,0
 .00000023,0.00000187,-0.00001092,0.00001057,0.00000810,-0.00001403,0.0
 0000191,0.00000078,0.00000007,0.00000007,-0.00000001,0.00000004,0.,0.0
 0000004,-0.00001556,-0.00000182,-0.00001303,-0.00000671,-0.00000938,0.
 00000020,-0.00003277,0.00001992,-0.00000739,-0.00028502,-0.00005926,0.
 00002537,0.00034266,-0.00018402,-0.00098173,-0.02481554,-0.19192352,-0
 .11108274,-0.00000003,0.,-0.00000004,-0.00000004,0.,0.00000004,-0.0000
 0002,0.,-0.00000003,-0.00000003,0.,0.00000003,-0.00000005,-0.00000001,
 0.00000001,-0.00000003,-0.00000003,-0.00000003,0.,0.,0.00000002,0.,-0.
 00000002,-0.00000002,-0.00000004,0.,0.00000006,-0.00000004,0.,-0.00000
 006,-0.00000002,0.,0.00000002,-0.00000002,0.,-0.00000002,0.,-0.0000000
 3,-0.00000003,0.,-0.00000002,0.00000004,-0.00000002,-0.00000002,-0.000
 00002,-0.00000003,0.,0.,-0.00000007,-0.00000001,-0.00000008,-0.0000000
 7,-0.00000001,0.00000009,-0.00000002,0.,-0.00000002,-0.00000002,0.,0.0
 0000002,-0.00000009,-0.00000002,0.00000002,-0.00000006,-0.00000004,-0.
 00000006,0.,0.,0.00000002,0.,-0.00000001,0.,-0.00000005,0.,0.00000014,
 -0.00000007,0.00000002,-0.00000013,-0.00000001,0.,0.00000001,-0.000000
 01,0.,-0.00000001,0.,-0.00000005,-0.00000007,0.,-0.00000003,0.00000009
 ,-0.00000001,-0.00000001,0.,-0.00000002,0.,0.,-0.00000033,-0.00000001,
 -0.00000018,-0.00000015,-0.00000001,0.00000026,-0.00000001,0.,-0.00000
 001,-0.00000001,0.,0.00000001,-0.00000020,-0.00000007,0.00000007,-0.00
 000021,-0.00000010,-0.00000018,0.,0.,0.00000001,0.,0.,0.,0.00000016,0.
 00000009,0.00000075,-0.00000022,0.00000010,-0.00000046,0.,0.,0.0000000
 1,0.,0.,0.,0.,-0.00000001,0.,-0.00000001,0.,0.,0.00000019,-0.00000054,
 -0.00000034,-0.00000010,-0.00000037,0.00000046,0.00000026,-0.00000005,
 0.00000212,0.00000002,-0.00000002,0.,-0.00000002,0.,0.00000001,-0.0000
 0002,0.,0.,0.00000001,0.,-0.00000001,0.,0.,0.,0.,0.,0.,-0.00000079,0.0
 0000010,-0.00000140,-0.00000118,-0.00000072,-0.00000055,0.00000165,-0.
 00000157,-0.00000121,-0.00000081,-0.00000091,0.00000164,-0.00002874,0.
 00002560,0.00000476,-0.00000835,0.00000719,-0.00001762,0.00011473,0.00
 001735,0.00003234,0.00048443,-0.00020617,0.00001801,-0.01048055,-0.015
 55221,-0.01038738,-0.00040554,0.00301488,-0.00370996,0.01479988,0.2500
 0761,-0.00003960,0.00002969,0.00001485,-0.00003542,-0.00001306,-0.0000
 0573,-0.00000365,0.00000940,0.00001959,-0.00010207,0.00006548,-0.00000
 826,-0.00000929,-0.00000035,-0.00001137,0.00078419,0.00134341,0.006623
 18,-0.00000022,0.00000041,-0.00000002,-0.00000010,-0.00000026,0.000000
 05,-0.00000014,-0.00000023,0.00000026,-0.00000011,0.00000013,-0.000000
 17,-0.00000017,-0.00000048,0.00000009,-0.00000013,0.00000023,0.,-0.000
 00020,0.00000029,-0.00000031,-0.00000009,-0.00000012,0.00000015,-0.000
 00036,0.00000082,-0.00000009,-0.00000006,-0.00000016,0.00000003,-0.000
 00024,-0.00000053,0.00000050,-0.00000006,0.00000007,-0.00000010,-0.000
 00026,-0.00000100,0.00000030,-0.00000008,0.00000014,0.,-0.00000041,0.0
 0000078,-0.00000066,-0.00000005,-0.00000007,0.00000010,0.00000053,0.00
 000214,0.00000003,-0.00000003,-0.00000011,0.00000002,0.00000013,-0.000
 00169,0.00000129,-0.00000004,0.00000004,-0.00000007,0.00000041,0.00000
 245,0.00000427,-0.00000003,0.00000011,0.,-0.00000001,-0.00000005,0.000
 00008,-0.00000263,-0.00000013,-0.00000339,0.00001395,-0.00003065,-0.00
 003622,0.00002454,0.00000037,-0.00000364,-0.00000009,-0.00000009,0.000
 00003,-0.00000007,0.00000003,-0.00000005,0.00002864,0.00000279,0.00002
 275,0.00001273,0.00001481,-0.00000188,0.00003711,-0.00005811,0.0000138
 1,0.00005472,-0.00001726,0.00000047,0.00128102,0.00019430,0.00072169,-
 0.01690748,-0.11406609,-0.12316799,0.00000008,0.,0.00000006,0.00000007
 ,-0.00000002,-0.00000009,0.00000002,-0.00000001,0.00000004,0.00000001,
 0.,-0.00000006,0.00000007,-0.00000003,-0.00000004,0.00000005,0.0000000
 3,0.00000005,0.00000001,0.,-0.00000004,0.00000002,0.00000003,0.0000000
 2,0.00000001,0.,-0.00000011,0.00000003,-0.00000003,0.00000008,0.000000
 04,-0.00000001,-0.00000005,0.00000005,0.,0.00000003,0.00000003,0.00000
 005,0.00000004,0.00000002,-0.00000002,-0.00000008,0.00000003,0.0000000
 2,0.00000002,0.00000005,-0.00000001,-0.00000002,0.00000017,-0.00000001
 ,0.00000012,0.00000012,-0.00000003,-0.00000017,0.00000002,0.,0.0000000
 2,0.00000001,0.,-0.00000004,0.00000012,-0.00000005,-0.00000007,0.00000
 010,0.00000005,0.00000010,0.,0.,-0.00000003,0.00000001,0.00000002,0.,-
 0.00000001,0.00000001,-0.00000026,0.00000006,-0.00000008,0.00000017,0.
 00000002,0.,-0.00000003,0.00000003,0.,0.00000002,0.00000005,0.00000010
 ,0.00000012,0.00000004,-0.00000003,-0.00000017,0.00000002,0.00000001,0
 .00000001,0.00000003,0.,-0.00000001,0.00000075,-0.00000017,0.00000013,
 0.00000031,-0.00000006,-0.00000047,0.00000001,0.,0.00000002,0.,0.,-0.0
 0000002,0.00000029,-0.00000008,-0.00000018,0.00000038,0.00000014,0.000
 00029,0.,0.,-0.00000002,0.,0.00000001,0.,-0.00000093,-0.00000032,-0.00
 000166,0.00000017,-0.00000057,0.00000061,0.00000001,0.,-0.00000002,0.0
 0000001,0.,0.00000001,0.,0.,0.00000001,0.00000001,0.,0.,-0.00000024,0.
 00000074,0.00000066,0.00000030,0.00000035,-0.00000087,-0.00000077,-0.0
 0000044,-0.00000458,-0.00000003,0.00000002,0.,0.00000002,0.,-0.0000000
 2,0.00000002,0.,0.,-0.00000002,0.,0.00000002,0.00000001,0.,0.,0.000000
 01,0.,0.,0.00000155,0.00000026,0.00000237,0.00000445,0.00000026,0.0000
 0192,-0.00000408,0.00000456,0.00000362,-0.00000157,-0.00000143,-0.0000
 0583,-0.00002102,0.00000915,-0.00002570,-0.00000465,0.00000992,0.00002
 066,-0.00015235,-0.00004550,-0.00009722,0.00033255,-0.00017413,-0.0001
 5701,-0.00103620,-0.00074558,0.00481153,-0.00349360,-0.02146834,-0.026
 06745,0.01923825,0.13493367,0.13733574\\0.,0.,0.,0.,0.00000002,0.00000
 001,0.,0.,0.,0.,0.00000001,0.00000004,0.,0.,0.,0.,0.00000003,0.0000000
 8,0.,0.,0.,0.,0.,0.,0.,0.,0.,0.,0.,0.,0.,0.,0.,0.,0.,0.,0.,0.,0.,0.,0.
 ,0.,0.,0.,0.,0.,0.,0.,0.,0.,0.,0.,0.,0.,0.,0.,0.,0.,0.,0.,0.,0.,0.,0.,
 0.,0.,0.,0.,0.,0.,0.,0.,0.,0.,0.,0.,0.,0.,0.,0.,0.,0.,0.,0.,0.,0.,0.,0
 .,0.,0.,0.,0.,0.,0.,0.,0.,0.,0.,0.,0.,0.,0.,0.00000001,0.,0.,0.,0.,0.,
 0.,0.,-0.00000002,0.,0.,-0.00000003,0.,-0.00000002,-0.00000006,0.,-0.0
 0000001,-0.00000003,0.,0.,0.,0.,0.,0.,0.,0.,0.,0.,0.,0.,0.,0.,0.,0.,0.
 ,0.,0.,0.,0.,0.,0.,0.,0.,0.,0.,0.,0.,0.,0.,0.,0.,0.,0.,0.,0.,0.,0.,0.,
 0.,0.,0.,0.,0.,0.,0.,0.,0.,0.,0.,0.,0.,0.,0.,0.,0.,0.,0.,0.,0.,0.,0.,0
 .,0.,0.,0.,0.,0.,0.,0.,0.,0.,0.,0.,0.,0.,0.,0.,0.,0.,0.,0.,0.,0.,0.,0.
 ,0.,0.,0.,0.,0.,0.,0.,0.,0.,0.,0.,0.,0.,0.,0.,0.,0.,0.,0.,0.,0.,0.,0.,
 0.,0.,0.,0.,0.,0.,0.,0.,0.,0.,0.,0.,0.,0.,0.,0.,0.,0.,0.,0.,0.,0.,0.,0
 .,0.,0.,0.,0.,0.,0.,0.,0.,0.,0.,0.,0.,0.,0.,0.,0.,0.,0.,0.,0.,0.,0.,0.
 ,0.,0.,0.,0.,0.,0.,0.,0.,0.,0.,0.,0.,0.,0.,0.,0.,0.,0.,0.,0.,-0.000000
 01,0.,0.,0.00000001,0.,0.,0.00000002,0.,0.,-0.00000002,0.,0.,0.,0.,0.,
 0.,0.,0.,0.,0.,0.\\\@


 WHEN HAVING A MEETING OF THE MINDS,
 MAKE SURE YOU HAVE THE EQUIPMENT FOR IT.
 Job cpu time:       0 days  0 hours  0 minutes 35.6 seconds.
 File lengths (MBytes):  RWF=   2052 Int=      0 D2E=      0 Chk=     14 Scr=      1
 Normal termination of Gaussian 09 at Mon Dec 12 14:37:39 2022.
