 Entering Gaussian System, Link 0=/home/cadd/g09/g09
 Input=eg_HF.com
 Output=eg_HF.log
 Initial command:
 /home/cadd//g09/l1.exe "/home/cadd/g09/scratch/Gau-12426.inp" -scrdir="/home/cadd/g09/scratch/"
 Entering Link 1 = /home/cadd//g09/l1.exe PID=     12428.
  
 Copyright (c) 1988,1990,1992,1993,1995,1998,2003,2009,2013,
            Gaussian, Inc.  All Rights Reserved.
  
 This is part of the Gaussian(R) 09 program.  It is based on
 the Gaussian(R) 03 system (copyright 2003, Gaussian, Inc.),
 the Gaussian(R) 98 system (copyright 1998, Gaussian, Inc.),
 the Gaussian(R) 94 system (copyright 1995, Gaussian, Inc.),
 the Gaussian 92(TM) system (copyright 1992, Gaussian, Inc.),
 the Gaussian 90(TM) system (copyright 1990, Gaussian, Inc.),
 the Gaussian 88(TM) system (copyright 1988, Gaussian, Inc.),
 the Gaussian 86(TM) system (copyright 1986, Carnegie Mellon
 University), and the Gaussian 82(TM) system (copyright 1983,
 Carnegie Mellon University). Gaussian is a federally registered
 trademark of Gaussian, Inc.
  
 This software contains proprietary and confidential information,
 including trade secrets, belonging to Gaussian, Inc.
  
 This software is provided under written license and may be
 used, copied, transmitted, or stored only in accord with that
 written license.
  
 The following legend is applicable only to US Government
 contracts under FAR:
  
                    RESTRICTED RIGHTS LEGEND
  
 Use, reproduction and disclosure by the US Government is
 subject to restrictions as set forth in subparagraphs (a)
 and (c) of the Commercial Computer Software - Restricted
 Rights clause in FAR 52.227-19.
  
 Gaussian, Inc.
 340 Quinnipiac St., Bldg. 40, Wallingford CT 06492
  
  
 ---------------------------------------------------------------
 Warning -- This program may not be used in any manner that
 competes with the business of Gaussian, Inc. or will provide
 assistance to any competitor of Gaussian, Inc.  The licensee
 of this program is prohibited from giving any competitor of
 Gaussian, Inc. access to this program.  By using this program,
 the user acknowledges that Gaussian, Inc. is engaged in the
 business of creating and licensing software in the field of
 computational chemistry and represents and warrants to the
 licensee that it is not a competitor of Gaussian, Inc. and that
 it will not use this program in any manner prohibited above.
 ---------------------------------------------------------------
  

 Cite this work as:
 Gaussian 09, Revision D.01,
 M. J. Frisch, G. W. Trucks, H. B. Schlegel, G. E. Scuseria, 
 M. A. Robb, J. R. Cheeseman, G. Scalmani, V. Barone, B. Mennucci, 
 G. A. Petersson, H. Nakatsuji, M. Caricato, X. Li, H. P. Hratchian, 
 A. F. Izmaylov, J. Bloino, G. Zheng, J. L. Sonnenberg, M. Hada, 
 M. Ehara, K. Toyota, R. Fukuda, J. Hasegawa, M. Ishida, T. Nakajima, 
 Y. Honda, O. Kitao, H. Nakai, T. Vreven, J. A. Montgomery, Jr., 
 J. E. Peralta, F. Ogliaro, M. Bearpark, J. J. Heyd, E. Brothers, 
 K. N. Kudin, V. N. Staroverov, T. Keith, R. Kobayashi, J. Normand, 
 K. Raghavachari, A. Rendell, J. C. Burant, S. S. Iyengar, J. Tomasi, 
 M. Cossi, N. Rega, J. M. Millam, M. Klene, J. E. Knox, J. B. Cross, 
 V. Bakken, C. Adamo, J. Jaramillo, R. Gomperts, R. E. Stratmann, 
 O. Yazyev, A. J. Austin, R. Cammi, C. Pomelli, J. W. Ochterski, 
 R. L. Martin, K. Morokuma, V. G. Zakrzewski, G. A. Voth, 
 P. Salvador, J. J. Dannenberg, S. Dapprich, A. D. Daniels, 
 O. Farkas, J. B. Foresman, J. V. Ortiz, J. Cioslowski, 
 and D. J. Fox, Gaussian, Inc., Wallingford CT, 2013.
 
 ******************************************
 Gaussian 09:  ES64L-G09RevD.01 24-Apr-2013
                13-Dec-2022 
 ******************************************
 %nprocshared=2
 Will use up to    2 processors via shared memory.
 %mem=512MB
 %chk=eg_MP2.chk
 ----------------------------------------------------------------------
 # HF/6-311G* SCF=Tight Pop=MK IOp(6/33=2,6/41=10,6/42=17) iop(6/50=1) 
 geom=connectivity
 ----------------------------------------------------------------------
 1/38=1,57=2/1;
 2/12=2,17=6,18=5,40=1/2;
 3/5=4,6=6,7=1,11=9,16=1,25=1,30=1/1,2,3;
 4//1;
 5/5=2,32=2,38=5/2;
 6/7=2,8=2,9=2,10=2,15=8,20=1,28=1,33=2,41=10,42=17,50=1/1,2;
 99/5=1,9=1/99;
 -------------------
 Title Card Required
 -------------------
 Symbolic Z-matrix:
 Charge =  0 Multiplicity = 1
 O                    -1.7472    0.51938   0.00001 
 C                    -3.05005  -0.11824  -0.00005 
 C                    -0.63347  -0.41557   0.00004 
 C                     0.63347   0.41556   0.00005 
 O                     1.7472   -0.51938   0.00002 
 C                     3.05005   0.11824  -0.00006 
 H                    -3.78162   0.685    -0.00007 
 H                    -3.18586  -0.73734   0.89313 
 H                    -3.18578  -0.73731  -0.89327 
 H                    -0.66899  -1.05284  -0.88978 
 H                    -0.66902  -1.05282   0.88988 
 H                     0.66902   1.05281   0.8899 
 H                     0.669     1.05283  -0.88977 
 H                     3.78162  -0.68499  -0.00008 
 H                     3.18587   0.73735   0.89313 
 H                     3.18577   0.73732  -0.89328 
 
                          Input orientation:                          
 ---------------------------------------------------------------------
 Center     Atomic      Atomic             Coordinates (Angstroms)
 Number     Number       Type             X           Y           Z
 ---------------------------------------------------------------------
      1          8           0       -1.747197    0.519375    0.000014
      2          6           0       -3.050050   -0.118236   -0.000052
      3          6           0       -0.633469   -0.415571    0.000043
      4          6           0        0.633467    0.415564    0.000053
      5          8           0        1.747200   -0.519379    0.000023
      6          6           0        3.050048    0.118245   -0.000059
      7          1           0       -3.781616    0.685003   -0.000067
      8          1           0       -3.185857   -0.737341    0.893134
      9          1           0       -3.185784   -0.737307   -0.893271
     10          1           0       -0.668994   -1.052843   -0.889782
     11          1           0       -0.669022   -1.052820    0.889883
     12          1           0        0.669018    1.052806    0.889897
     13          1           0        0.669000    1.052831   -0.889772
     14          1           0        3.781622   -0.684986   -0.000076
     15          1           0        3.185867    0.737350    0.893128
     16          1           0        3.185767    0.737322   -0.893275
 ---------------------------------------------------------------------
                    Distance matrix (angstroms):
                    1          2          3          4          5
     1  O    0.000000
     2  C    1.450509   0.000000
     3  C    1.454137   2.434804   0.000000
     4  C    2.382927   3.721995   1.515228   0.000000
     5  O    3.645520   4.813992   2.382931   1.454138   0.000000
     6  C    4.813987   6.104681   3.721997   2.434802   1.450510
     7  H    2.041150   1.086453   3.334980   4.423297   5.658475
     8  H    2.108730   1.095223   2.723202   4.088278   5.017988
     9  H    2.108730   1.095223   2.723203   4.088254   5.017948
    10  H    2.103837   2.708235   1.095065   2.155094   2.629511
    11  H    2.103836   2.708270   1.095063   2.155093   2.629551
    12  H    2.629550   3.999352   2.155097   1.095063   2.103834
    13  H    2.629505   3.999291   2.155087   1.095061   2.103828
    14  H    5.658474   6.855140   4.423303   3.334979   2.041151
    15  H    5.017997   6.357395   4.088296   2.723211   2.108736
    16  H    5.017927   6.357298   4.088245   2.723196   2.108732
                    6          7          8          9         10
     6  C    0.000000
     7  H    6.855133   0.000000
     8  H    6.357384   1.782077   0.000000
     9  H    6.357311   1.782076   1.786405   0.000000
    10  H    3.999291   3.674250   3.100472   2.536495   0.000000
    11  H    3.999359   3.674273   2.536532   3.100529   1.779665
    12  H    2.708271   4.553620   4.250258   4.609088   3.064521
    13  H    2.708216   4.553554   4.609054   4.250173   2.494813
    14  H    1.086453   7.686315   7.024693   7.024620   4.553556
    15  H    1.095227   7.024696   6.540151   6.779660   4.609069
    16  H    1.095222   7.024598   6.779636   6.539969   4.250163
                   11         12         13         14         15
    11  H    0.000000
    12  H    2.494796   0.000000
    13  H    3.064512   1.779669   0.000000
    14  H    4.553631   3.674272   3.674233   0.000000
    15  H    4.250281   2.536544   3.100465   1.782071   0.000000
    16  H    4.609084   3.100525   2.536469   1.782080   1.786403
                   16
    16  H    0.000000
 Stoichiometry    C4H10O2
 Framework group  C1[X(C4H10O2)]
 Deg. of freedom    42
 Full point group                 C1      NOp   1
 Largest Abelian subgroup         C1      NOp   1
 Largest concise Abelian subgroup C1      NOp   1
                         Standard orientation:                         
 ---------------------------------------------------------------------
 Center     Atomic      Atomic             Coordinates (Angstroms)
 Number     Number       Type             X           Y           Z
 ---------------------------------------------------------------------
      1          8           0       -1.747197   -0.519375   -0.000014
      2          6           0       -3.050050    0.118236    0.000052
      3          6           0       -0.633469    0.415571   -0.000043
      4          6           0        0.633467   -0.415564   -0.000053
      5          8           0        1.747200    0.519379   -0.000023
      6          6           0        3.050048   -0.118245    0.000059
      7          1           0       -3.781616   -0.685003    0.000067
      8          1           0       -3.185857    0.737341   -0.893134
      9          1           0       -3.185784    0.737307    0.893271
     10          1           0       -0.668994    1.052843    0.889782
     11          1           0       -0.669022    1.052820   -0.889883
     12          1           0        0.669018   -1.052806   -0.889897
     13          1           0        0.669000   -1.052831    0.889772
     14          1           0        3.781622    0.684986    0.000076
     15          1           0        3.185867   -0.737350   -0.893128
     16          1           0        3.185767   -0.737322    0.893275
 ---------------------------------------------------------------------
 Rotational constants (GHZ):     18.7202391      1.2367531      1.1952759
 Standard basis: 6-311G(d) (5D, 7F)
 There are   144 symmetry adapted cartesian basis functions of A   symmetry.
 There are   138 symmetry adapted basis functions of A   symmetry.
   138 basis functions,   242 primitive gaussians,   144 cartesian basis functions
    25 alpha electrons       25 beta electrons
       nuclear repulsion energy       248.4151220190 Hartrees.
 NAtoms=   16 NActive=   16 NUniq=   16 SFac= 1.00D+00 NAtFMM=   60 NAOKFM=F Big=F
 Integral buffers will be    131072 words long.
 Raffenetti 1 integral format.
 Two-electron integral symmetry is turned on.
 One-electron integrals computed using PRISM.
 NBasis=   138 RedAO= T EigKep=  2.84D-03  NBF=   138
 NBsUse=   138 1.00D-06 EigRej= -1.00D+00 NBFU=   138
 ExpMin= 1.03D-01 ExpMax= 8.59D+03 ExpMxC= 1.30D+03 IAcc=1 IRadAn=         1 AccDes= 0.00D+00
 Harris functional with IExCor=  205 and IRadAn=       1 diagonalized for initial guess.
 HarFok:  IExCor=  205 AccDes= 0.00D+00 IRadAn=         1 IDoV= 1 UseB2=F ITyADJ=14
 ICtDFT=  3500011 ScaDFX=  1.000000  1.000000  1.000000  1.000000
 FoFCou: FMM=F IPFlag=           0 FMFlag=      100000 FMFlg1=           0
         NFxFlg=           0 DoJE=T BraDBF=F KetDBF=T FulRan=T
         wScrn=  0.000000 ICntrl=     500 IOpCl=  0 I1Cent=   200000004 NGrid=           0
         NMat0=    1 NMatS0=      1 NMatT0=    0 NMatD0=    1 NMtDS0=    0 NMtDT0=    0
 Petite list used in FoFCou.
 Keep R1 ints in memory in canonical form, NReq=47605392.
 Requested convergence on RMS density matrix=1.00D-08 within 128 cycles.
 Requested convergence on MAX density matrix=1.00D-06.
 Requested convergence on             energy=1.00D-06.
 No special actions if energy rises.
 SCF Done:  E(RHF) =  -307.039329455     A.U. after   11 cycles
            NFock= 11  Conv=0.72D-08     -V/T= 2.0014

 **********************************************************************

            Population analysis using the SCF density.

 **********************************************************************

 Orbital symmetries:
 BldTbl:  Degeneracy threshold= 1.00D-02
       Occupied  (A) (A) (A) (A) (A) (A) (A) (A) (A) (A) (A) (A)
                 (A) (A) (A) (A) (A) (A) (A) (A) (A) (A) (A) (A)
                 (A)
       Virtual   (A) (A) (A) (A) (A) (A) (A) (A) (A) (A) (A) (A)
                 (A) (A) (A) (A) (A) (A) (A) (A) (A) (A) (A) (A)
                 (A) (A) (A) (A) (A) (A) (A) (A) (A) (A) (A) (A)
                 (A) (A) (A) (A) (A) (A) (A) (A) (A) (A) (A) (A)
                 (A) (A) (A) (A) (A) (A) (A) (A) (A) (A) (A) (A)
                 (A) (A) (A) (A) (A) (A) (A) (A) (A) (A) (A) (A)
                 (A) (A) (A) (A) (A) (A) (A) (A) (A) (A) (A) (A)
                 (A) (A) (A) (A) (A) (A) (A) (A) (A) (A) (A) (A)
                 (A) (A) (A) (A) (A) (A) (A) (A) (A) (A) (A) (A)
                 (A) (A) (A) (A) (A)
 The electronic state is 1-A.
 Alpha  occ. eigenvalues --  -20.54700 -20.54700 -11.27319 -11.27253 -11.27184
 Alpha  occ. eigenvalues --  -11.27184  -1.35220  -1.34057  -1.01947  -0.93106
 Alpha  occ. eigenvalues --   -0.88614  -0.82540  -0.67751  -0.65212  -0.63995
 Alpha  occ. eigenvalues --   -0.63159  -0.59921  -0.58894  -0.57879  -0.52018
 Alpha  occ. eigenvalues --   -0.50489  -0.48069  -0.46895  -0.42446  -0.42311
 Alpha virt. eigenvalues --    0.15966   0.16310   0.19785   0.20003   0.20839
 Alpha virt. eigenvalues --    0.22743   0.23402   0.24478   0.25195   0.26263
 Alpha virt. eigenvalues --    0.28451   0.31903   0.37706   0.38358   0.43572
 Alpha virt. eigenvalues --    0.46161   0.46627   0.47212   0.52169   0.55116
 Alpha virt. eigenvalues --    0.58344   0.64333   0.65738   0.66456   0.67236
 Alpha virt. eigenvalues --    0.72345   0.72815   0.76070   0.77353   0.77584
 Alpha virt. eigenvalues --    0.79973   0.80479   0.81297   0.82560   0.82570
 Alpha virt. eigenvalues --    0.83503   0.86036   0.90816   0.95059   1.08005
 Alpha virt. eigenvalues --    1.09691   1.17142   1.19766   1.23389   1.26124
 Alpha virt. eigenvalues --    1.31049   1.35733   1.46180   1.52491   1.53364
 Alpha virt. eigenvalues --    1.57841   1.63245   1.77211   1.77479   1.78053
 Alpha virt. eigenvalues --    1.78299   1.79023   1.79461   1.80571   1.81782
 Alpha virt. eigenvalues --    1.85682   1.91781   1.93953   1.98294   1.98608
 Alpha virt. eigenvalues --    2.01780   2.02550   2.16369   2.36675   2.64976
 Alpha virt. eigenvalues --    2.65294   2.68092   2.68556   2.71475   2.71915
 Alpha virt. eigenvalues --    2.74027   2.77706   2.77778   2.80754   3.15299
 Alpha virt. eigenvalues --    3.15405   3.18015   3.29692   3.30316   3.30658
 Alpha virt. eigenvalues --    3.32099   3.40776   3.44493   3.49814   3.52337
 Alpha virt. eigenvalues --    3.53140   3.55597   3.59405   3.61637   3.63496
 Alpha virt. eigenvalues --    3.70626   4.09013   4.29910   4.30299   4.35587
 Alpha virt. eigenvalues --    4.46374   5.47997   5.49450   5.69063   5.70875
 Alpha virt. eigenvalues --    6.04073   6.12286  24.54907  24.55235  24.59226
 Alpha virt. eigenvalues --   24.79204  51.56085  51.59728
          Condensed to atoms (all electrons):
               1          2          3          4          5          6
     1  O    8.217896   0.240145   0.233248  -0.045085   0.000946  -0.000086
     2  C    0.240145   5.035926  -0.091880   0.007646  -0.000086   0.000009
     3  C    0.233248  -0.091880   4.995935   0.354393  -0.045084   0.007646
     4  C   -0.045085   0.007646   0.354393   4.995936   0.233247  -0.091880
     5  O    0.000946  -0.000086  -0.045084   0.233247   8.217896   0.240145
     6  C   -0.000086   0.000009   0.007646  -0.091880   0.240145   5.035927
     7  H   -0.023781   0.394817   0.006058  -0.000178   0.000003   0.000000
     8  H   -0.032772   0.386176  -0.006814  -0.000285  -0.000006   0.000000
     9  H   -0.032772   0.386176  -0.006814  -0.000284  -0.000006   0.000000
    10  H   -0.032905  -0.004528   0.385762  -0.040411   0.006566  -0.000482
    11  H   -0.032906  -0.004528   0.385761  -0.040409   0.006565  -0.000482
    12  H    0.006565  -0.000482  -0.040409   0.385761  -0.032906  -0.004527
    13  H    0.006566  -0.000482  -0.040412   0.385763  -0.032906  -0.004529
    14  H    0.000003   0.000000  -0.000178   0.006058  -0.023781   0.394817
    15  H   -0.000006   0.000000  -0.000285  -0.006814  -0.032771   0.386175
    16  H   -0.000006   0.000000  -0.000284  -0.006814  -0.032772   0.386175
               7          8          9         10         11         12
     1  O   -0.023781  -0.032772  -0.032772  -0.032905  -0.032906   0.006565
     2  C    0.394817   0.386176   0.386176  -0.004528  -0.004528  -0.000482
     3  C    0.006058  -0.006814  -0.006814   0.385762   0.385761  -0.040409
     4  C   -0.000178  -0.000285  -0.000284  -0.040411  -0.040409   0.385761
     5  O    0.000003  -0.000006  -0.000006   0.006566   0.006565  -0.032906
     6  C    0.000000   0.000000   0.000000  -0.000482  -0.000482  -0.004527
     7  H    0.463200  -0.027535  -0.027535  -0.000096  -0.000096   0.000009
     8  H   -0.027535   0.525548  -0.041604  -0.001217   0.006676  -0.000073
     9  H   -0.027535  -0.041604   0.525548   0.006677  -0.001217   0.000105
    10  H   -0.000096  -0.001217   0.006677   0.531825  -0.046182   0.009855
    11  H   -0.000096   0.006676  -0.001217  -0.046182   0.531825  -0.010845
    12  H    0.000009  -0.000073   0.000105   0.009855  -0.010845   0.531823
    13  H    0.000009   0.000105  -0.000073  -0.010845   0.009855  -0.046181
    14  H    0.000000   0.000000   0.000000   0.000009   0.000009  -0.000096
    15  H    0.000000   0.000001  -0.000001   0.000105  -0.000073   0.006676
    16  H    0.000000  -0.000001   0.000001  -0.000073   0.000105  -0.001217
              13         14         15         16
     1  O    0.006566   0.000003  -0.000006  -0.000006
     2  C   -0.000482   0.000000   0.000000   0.000000
     3  C   -0.040412  -0.000178  -0.000285  -0.000284
     4  C    0.385763   0.006058  -0.006814  -0.006814
     5  O   -0.032906  -0.023781  -0.032771  -0.032772
     6  C   -0.004529   0.394817   0.386175   0.386175
     7  H    0.000009   0.000000   0.000000   0.000000
     8  H    0.000105   0.000000   0.000001  -0.000001
     9  H   -0.000073   0.000000  -0.000001   0.000001
    10  H   -0.010845   0.000009   0.000105  -0.000073
    11  H    0.009855   0.000009  -0.000073   0.000105
    12  H   -0.046181  -0.000096   0.006676  -0.001217
    13  H    0.531824  -0.000096  -0.001217   0.006677
    14  H   -0.000096   0.463200  -0.027536  -0.027534
    15  H   -0.001217  -0.027536   0.525551  -0.041604
    16  H    0.006677  -0.027534  -0.041604   0.525547
 Mulliken charges:
               1
     1  O   -0.505051
     2  C   -0.348909
     3  C   -0.136645
     4  C   -0.136644
     5  O   -0.505051
     6  C   -0.348910
     7  H    0.215123
     8  H    0.191799
     9  H    0.191800
    10  H    0.195941
    11  H    0.195941
    12  H    0.195942
    13  H    0.195942
    14  H    0.215123
    15  H    0.191798
    16  H    0.191800
 Sum of Mulliken charges =   0.00000
 Mulliken charges with hydrogens summed into heavy atoms:
               1
     1  O   -0.505051
     2  C    0.249813
     3  C    0.255237
     4  C    0.255240
     5  O   -0.505051
     6  C    0.249812
 DipInt: DoE/N= T F RetVal/Mat= T F Init=T NMatP=  1 IDeriv=0 Min/MaxMlt=  0  4
 Entering OneElI...
 OneElI was handed    67053343 working-precision words.
 Multipole integrals L=0 to 4 MinM= 0 MaxM= 0.
 Requested accuracy = 0.1000D-12
 ShPair: Thresh= 1.00D-13 NBox=     0 BxSize= 0.00D+00 RnKept= 1.45D+01
         NSMCal=                 1830 NSMKep=                1680
 PrsmSu:  NPrtUS=   1 ThrOK=F IAlg=1 NPAlg=1 LenDen=           0.
 Prism:   IPart=     0 DynPar=F LinDyn=F Incr=          16.
 PRISM was handed    66933764 working-precision words and  1680 shell-pairs
 IPart=  0 NShTot=        1680 NBatch=          36 AvBLen=        46.7
 PrSmSu:  NxtVal=             17.
 Electronic moments (au):
        -50.00000000         -0.00000810         -0.00000434          0.00004427
       -866.06082077        -80.17844986        -51.02101625         -3.66887829
          0.00003370          0.00000704          0.00043880         -0.00043414
         -0.00112375         -0.00045941          0.00482278         -0.05802597
          0.00003737          0.00001430          0.00130342          0.00162364
     -28266.64562560       -377.83984298       -234.41661618        279.81632093
         -0.01101883         49.29737477         -0.00019082         -0.00026974
         -0.00056570      -1224.39407412       -965.98524275       -135.38185438
          0.00059913          0.00019810        116.78956813
 Electronic spatial extent (au):  <R**2>=            997.2603
 DipInt: DoE/N= F T RetVal/Mat= T F Init=T NMatP=  1 IDeriv=0 Min/MaxMlt=  0  4
 Nuclear    moments (au):
         50.00000000          0.00000000          0.00000000          0.00000000
        843.77677595         50.36268182         22.70644997          0.00000000
          0.00000024         -0.00000012         -0.00057597          0.00043729
          0.00097323          0.00038688         -0.00507294          0.05976145
         -0.00006630         -0.00002589         -0.00126713         -0.00127785
      25650.43617678        102.80600746         64.44877871       -251.74425874
          0.01080748        -31.74896404          0.00011192          0.00021884
          0.00052024        676.44081681        431.12212822         66.89456134
         -0.00072569         -0.00006577       -124.04416370
 Total      moments (au):
          0.00000000         -0.00000810         -0.00000434          0.00004427
        -22.28404482        -29.81576803        -28.31456628         -3.66887829
          0.00003394          0.00000691         -0.00013716          0.00000316
         -0.00015052         -0.00007253         -0.00025016          0.00173548
         -0.00002894         -0.00001159          0.00003630          0.00034578
      -2616.20944882       -275.03383552       -169.96783747         28.07206219
         -0.00021135         17.54841073         -0.00007891         -0.00005090
         -0.00004546       -547.95325732       -534.86311453        -68.48729304
         -0.00012656          0.00013233         -7.25459557
 Traceless Quadrup. (au):
          4.52074822         -3.01097499         -1.50977323         -3.66887829
          0.00003394          0.00000691
 Charge=              0.0000 electrons
 Dipole moment (field-independent basis, Debye):
    X=              0.0000    Y=              0.0000    Z=              0.0001  Tot=              0.0001
 Quadrupole moment (field-independent basis, Debye-Ang):
   XX=            -29.9728   YY=            -40.1032   ZZ=            -38.0841
   XY=             -4.9348   XZ=              0.0000   YZ=              0.0000
 Traceless Quadrupole moment (field-independent basis, Debye-Ang):
   XX=              6.0806   YY=             -4.0499   ZZ=             -2.0307
   XY=             -4.9348   XZ=              0.0000   YZ=              0.0000
 Octapole moment (field-independent basis, Debye-Ang**2):
  XXX=             -0.0001  YYY=              0.0000  ZZZ=             -0.0001  XYY=             -0.0001
  XXY=             -0.0002  XXZ=              0.0012  XZZ=              0.0000  YZZ=              0.0000
  YYZ=              0.0000  XYZ=              0.0002
 Hexadecapole moment (field-independent basis, Debye-Ang**3):
 XXXX=           -985.3899 YYYY=           -103.5909 ZZZZ=            -64.0180 XXXY=             10.5733
 XXXZ=             -0.0001 YYYX=              6.6096 YYYZ=              0.0000 ZZZX=              0.0000
 ZZZY=              0.0000 XXYY=           -206.3855 XXZZ=           -201.4551 YYZZ=            -25.7956
 XXYZ=              0.0000 YYXZ=              0.0000 ZZXY=             -2.7324
 N-N= 2.484151220190D+02 E-N=-1.218067552766D+03  KE= 3.066158648021D+02
 Entering OneElI...
 OneElI was handed    67064937 working-precision words.
 Calculate electrostatic properties
    NBasis =   138  MinDer = 0  MaxDer = 0
    NGrid  =    16  NMatD  =   1
 Requested accuracy = 0.1000D-12
 ShPair: Thresh= 1.00D-13 NBox=     0 BxSize= 0.00D+00 RnKept= 1.45D+01
         NSMCal=                 1830 NSMKep=                1610
 PrsmSu:  NPrtUS=   2 ThrOK=T IAlg=1 NPAlg=1 LenDen=           0.
 Prism:   IPart=     0 DynPar=F LinDyn=F Incr=         128.
 PRISM was handed    33456485 working-precision words and  1610 shell-pairs
 PRISM was handed    33456485 working-precision words and  1610 shell-pairs
 IPart=  1 NShTot=       12848 NBatch=         803 AvBLen=        16.0
 IPart=  0 NShTot=       12912 NBatch=         807 AvBLen=        16.0
 PrSmSu:  NxtVal=            257.
 --------------------------------------------------------
       Center         ----      EFG at Nuclei      ----
                      3XX-RR        3YY-RR        3ZZ-RR
 --------------------------------------------------------
     1   Atom       -2.091375     -0.081997      2.173372
     2   Atom       -0.284886      0.106706      0.178180
     3   Atom       -0.161907     -0.049679      0.211586
     4   Atom       -0.161910     -0.049679      0.211589
     5   Atom       -2.091378     -0.081998      2.173376
     6   Atom       -0.284881      0.106702      0.178179
     7   Atom       -0.065232     -0.098236      0.163468
     8   Atom        0.130834      0.012390     -0.143224
     9   Atom        0.130840      0.012406     -0.143246
    10   Atom        0.137777      0.002011     -0.139788
    11   Atom        0.137777      0.002021     -0.139799
    12   Atom        0.137777      0.002024     -0.139801
    13   Atom        0.137779      0.002012     -0.139791
    14   Atom       -0.065237     -0.098232      0.163469
    15   Atom        0.130830      0.012390     -0.143221
    16   Atom        0.130843      0.012403     -0.143246
 --------------------------------------------------------
                        XY            XZ            YZ
 --------------------------------------------------------
     1   Atom       -0.229057      0.000179     -0.000025
     2   Atom        0.236381      0.000024     -0.000011
     3   Atom       -0.282389      0.000011      0.000006
     4   Atom       -0.282390     -0.000008     -0.000008
     5   Atom       -0.229034     -0.000211      0.000038
     6   Atom        0.236385     -0.000029      0.000012
     7   Atom       -0.226476      0.000005      0.000004
     8   Atom        0.035176     -0.041058      0.207861
     9   Atom        0.035157      0.041037     -0.207858
    10   Atom        0.006843      0.015528     -0.208510
    11   Atom        0.006850     -0.015536      0.208508
    12   Atom        0.006849      0.015535     -0.208507
    13   Atom        0.006845     -0.015530      0.208514
    14   Atom       -0.226476     -0.000006     -0.000005
    15   Atom        0.035178      0.041060     -0.207856
    16   Atom        0.035154     -0.041032      0.207861
 --------------------------------------------------------


 ---------------------------------------------------------------------------------
              Nuclear Quadrupole Coupling Constant in Principal Axis System
 ---------------------------------------------------------------------------------

       Atom             a.u.   MegaHertz   Gauss  10(-4) cm-1        Axes


 ---------------------------------------------------------------------------------

 No NMR shielding tensors so no spin-rotation constants.
 Leave Link  601 at Tue Dec 13 15:00:30 2022, MaxMem=    67108864 cpu:         0.2
 FitSet:  NAtFit=    16 NAtPot=    16 NAtFrz=     0 MDM=    20 TotChg=   0.00000
 Merz-Kollman atomic radii used.
 Atom Element Radius
    1     8    1.40
    2     6    1.50
    3     6    1.50
    4     6    1.50
    5     8    1.40
    6     6    1.50
    7     1    1.20
    8     1    1.20
    9     1    1.20
   10     1    1.20
   11     1    1.20
   12     1    1.20
   13     1    1.20
   14     1    1.20
   15     1    1.20
   16     1    1.20
 Generate VDW surfaces: Layer=10 Dens=17 Start= 1.400 Inc= 0.126

 **********************************************************************

            Electrostatic Properties Using The SCF Density

 **********************************************************************

       Atomic Center    1 is at  -1.747197 -0.519375 -0.000014
       Atomic Center    2 is at  -3.050050  0.118236  0.000052
       Atomic Center    3 is at  -0.633469  0.415571 -0.000043
       Atomic Center    4 is at   0.633467 -0.415564 -0.000053
       Atomic Center    5 is at   1.747200  0.519379 -0.000023
       Atomic Center    6 is at   3.050048 -0.118245  0.000059
       Atomic Center    7 is at  -3.781616 -0.685003  0.000067
       Atomic Center    8 is at  -3.185857  0.737341 -0.893134
       Atomic Center    9 is at  -3.185784  0.737307  0.893271
       Atomic Center   10 is at  -0.668994  1.052843  0.889782
       Atomic Center   11 is at  -0.669022  1.052820 -0.889883
       Atomic Center   12 is at   0.669018 -1.052806 -0.889897
       Atomic Center   13 is at   0.669000 -1.052831  0.889772
       Atomic Center   14 is at   3.781622  0.684986  0.000076
       Atomic Center   15 is at   3.185867 -0.737350 -0.893128
       Atomic Center   16 is at   3.185767 -0.737322  0.893275
      ESP Fit Center   17 is at  -1.747197 -0.519375  1.959986
      ESP Fit Center   18 is at  -1.501544 -0.519375  1.944531
      ESP Fit Center   19 is at  -1.624370 -0.306634  1.944531
      ESP Fit Center   20 is at  -1.870024 -0.306634  1.944531
      ESP Fit Center   21 is at  -1.992850 -0.519375  1.944531
      ESP Fit Center   22 is at  -1.870024 -0.732117  1.944531
      ESP Fit Center   23 is at  -1.624370 -0.732117  1.944531
      ESP Fit Center   24 is at  -1.259765 -0.519375  1.898409
      ESP Fit Center   25 is at  -1.325068 -0.275659  1.898409
      ESP Fit Center   26 is at  -1.503481 -0.097247  1.898409
      ESP Fit Center   27 is at  -1.747197 -0.031943  1.898409
      ESP Fit Center   28 is at  -1.990913 -0.097247  1.898409
      ESP Fit Center   29 is at  -2.169326 -0.275659  1.898409
      ESP Fit Center   30 is at  -2.234629 -0.519375  1.898409
      ESP Fit Center   31 is at  -2.169326 -0.763092  1.898409
      ESP Fit Center   32 is at  -1.990913 -0.941504  1.898409
      ESP Fit Center   33 is at  -1.747197 -1.006808  1.898409
      ESP Fit Center   34 is at  -1.503481 -0.941504  1.898409
      ESP Fit Center   35 is at  -1.325068 -0.763092  1.898409
      ESP Fit Center   36 is at  -1.872488  0.191187  1.822348
      ESP Fit Center   37 is at  -2.425208 -0.766151  1.822348
      ESP Fit Center   38 is at  -2.299916 -0.983162  1.822348
      ESP Fit Center   39 is at  -2.107959 -1.144234  1.822348
      ESP Fit Center   40 is at  -1.872488 -1.229938  1.822348
      ESP Fit Center   41 is at  -1.621906 -1.229938  1.822348
      ESP Fit Center   42 is at  -1.386435 -1.144234  1.822348
      ESP Fit Center   43 is at  -1.194477 -0.983162  1.822348
      ESP Fit Center   44 is at  -1.069186 -0.766151  1.822348
      ESP Fit Center   45 is at  -2.564930 -0.991494  1.717547
      ESP Fit Center   46 is at  -2.414873 -1.187052  1.717547
      ESP Fit Center   47 is at  -2.219316 -1.337109  1.717547
      ESP Fit Center   48 is at  -1.991584 -1.431439  1.717547
      ESP Fit Center   49 is at  -1.747197 -1.463613  1.717547
      ESP Fit Center   50 is at  -1.502810 -1.431439  1.717547
      ESP Fit Center   51 is at  -1.275078 -1.337109  1.717547
      ESP Fit Center   52 is at  -1.079520 -1.187052  1.717547
      ESP Fit Center   53 is at  -0.929464 -0.991494  1.717547
      ESP Fit Center   54 is at  -2.583587 -1.311646  1.585660
      ESP Fit Center   55 is at  -2.393718 -1.472922  1.585660
      ESP Fit Center   56 is at  -2.173618 -1.589612  1.585660
      ESP Fit Center   57 is at  -1.933579 -1.656258  1.585660
      ESP Fit Center   58 is at  -1.684826 -1.669745  1.585660
      ESP Fit Center   59 is at  -1.438988 -1.629442  1.585660
      ESP Fit Center   60 is at  -1.207563 -1.537234  1.585660
      ESP Fit Center   61 is at  -1.001370 -1.397431  1.585660
      ESP Fit Center   62 is at  -2.738734 -1.423281  1.428765
      ESP Fit Center   63 is at  -2.555759 -1.590085  1.428765
      ESP Fit Center   64 is at  -2.345250 -1.720427  1.428765
      ESP Fit Center   65 is at  -2.114374 -1.809869  1.428765
      ESP Fit Center   66 is at  -1.870995 -1.855364  1.428765
      ESP Fit Center   67 is at  -1.623399 -1.855364  1.428765
      ESP Fit Center   68 is at  -1.380020 -1.809869  1.428765
      ESP Fit Center   69 is at  -1.149144 -1.720427  1.428765
      ESP Fit Center   70 is at  -0.938635 -1.590085  1.428765
      ESP Fit Center   71 is at  -2.770032 -1.630470  1.249337
      ESP Fit Center   72 is at  -2.573201 -1.783669  1.249337
      ESP Fit Center   73 is at  -2.353840 -1.902382  1.249337
      ESP Fit Center   74 is at  -2.117931 -1.983370  1.249337
      ESP Fit Center   75 is at  -1.871909 -2.024423  1.249337
      ESP Fit Center   76 is at  -1.622485 -2.024423  1.249337
      ESP Fit Center   77 is at  -1.376463 -1.983370  1.249337
      ESP Fit Center   78 is at  -1.140554 -1.902382  1.249337
      ESP Fit Center   79 is at  -0.921193 -1.783669  1.249337
      ESP Fit Center   80 is at  -2.778999 -1.813215  1.050207
      ESP Fit Center   81 is at  -2.574638 -1.952546  1.050207
      ESP Fit Center   82 is at  -2.351794 -2.059862  1.050207
      ESP Fit Center   83 is at  -2.115443 -2.132767  1.050207
      ESP Fit Center   84 is at  -1.870866 -2.169631  1.050207
      ESP Fit Center   85 is at  -1.623527 -2.169631  1.050207
      ESP Fit Center   86 is at  -1.378951 -2.132767  1.050207
      ESP Fit Center   87 is at  -1.142600 -2.059862  1.050207
      ESP Fit Center   88 is at  -0.919756 -1.952546  1.050207
      ESP Fit Center   89 is at  -2.839049 -1.916882  0.834514
      ESP Fit Center   90 is at  -2.633927 -2.055238  0.834514
      ESP Fit Center   91 is at  -2.411547 -2.163700  0.834514
      ESP Fit Center   92 is at  -2.176236 -2.240157  0.834514
      ESP Fit Center   93 is at  -1.932574 -2.283121  0.834514
      ESP Fit Center   94 is at  -1.685304 -2.291756  0.834514
      ESP Fit Center   95 is at  -1.439239 -2.265894  0.834514
      ESP Fit Center   96 is at  -1.199167 -2.206037  0.834514
      ESP Fit Center   97 is at  -0.969763 -2.113352  0.834514
      ESP Fit Center   98 is at  -0.755490 -1.989641  0.834514
      ESP Fit Center   99 is at  -2.750221 -2.090586  0.605660
      ESP Fit Center  100 is at  -2.531849 -2.210257  0.605660
      ESP Fit Center  101 is at  -2.299476 -2.299754  0.605660
      ESP Fit Center  102 is at  -2.057247 -2.357480  0.605660
      ESP Fit Center  103 is at  -1.809485 -2.382405  0.605660
      ESP Fit Center  104 is at  -1.560611 -2.374085  0.605660
      ESP Fit Center  105 is at  -1.315068 -2.332666  0.605660
      ESP Fit Center  106 is at  -1.077235 -2.258890  0.605660
      ESP Fit Center  107 is at  -0.851359 -2.154072  0.605660
      ESP Fit Center  108 is at  -2.848683 -2.098439  0.367254
      ESP Fit Center  109 is at  -2.637714 -2.226330  0.367254
      ESP Fit Center  110 is at  -2.412122 -2.326193  0.367254
      ESP Fit Center  111 is at  -2.175613 -2.396388  0.367254
      ESP Fit Center  112 is at  -1.932068 -2.435762  0.367254
      ESP Fit Center  113 is at  -1.685489 -2.443669  0.367254
      ESP Fit Center  114 is at  -1.439922 -2.419980  0.367254
      ESP Fit Center  115 is at  -1.199401 -2.365082  0.367254
      ESP Fit Center  116 is at  -0.967874 -2.279879  0.367254
      ESP Fit Center  117 is at  -0.749145 -2.165767  0.367254
      ESP Fit Center  118 is at  -2.866333 -2.123741  0.123056
      ESP Fit Center  119 is at  -2.651983 -2.253681  0.123056
      ESP Fit Center  120 is at  -2.422777 -2.355144  0.123056
      ESP Fit Center  121 is at  -2.182477 -2.426464  0.123056
      ESP Fit Center  122 is at  -1.935031 -2.466469  0.123056
      ESP Fit Center  123 is at  -1.684500 -2.474503  0.123056
      ESP Fit Center  124 is at  -1.434998 -2.450434  0.123056
      ESP Fit Center  125 is at  -1.190623 -2.394657  0.123056
      ESP Fit Center  126 is at  -0.955387 -2.308088  0.123056
      ESP Fit Center  127 is at  -0.733152 -2.192148  0.123056
      ESP Fit Center  128 is at  -2.866333 -2.123741 -0.123083
      ESP Fit Center  129 is at  -2.651983 -2.253681 -0.123083
      ESP Fit Center  130 is at  -2.422777 -2.355144 -0.123083
      ESP Fit Center  131 is at  -2.182477 -2.426464 -0.123083
      ESP Fit Center  132 is at  -1.935031 -2.466469 -0.123083
      ESP Fit Center  133 is at  -1.684500 -2.474503 -0.123083
      ESP Fit Center  134 is at  -1.434998 -2.450434 -0.123083
      ESP Fit Center  135 is at  -1.190623 -2.394657 -0.123083
      ESP Fit Center  136 is at  -0.955387 -2.308088 -0.123083
      ESP Fit Center  137 is at  -0.733152 -2.192148 -0.123083
      ESP Fit Center  138 is at  -2.848683 -2.098439 -0.367281
      ESP Fit Center  139 is at  -2.637714 -2.226330 -0.367281
      ESP Fit Center  140 is at  -2.412122 -2.326193 -0.367281
      ESP Fit Center  141 is at  -2.175613 -2.396388 -0.367281
      ESP Fit Center  142 is at  -1.932068 -2.435762 -0.367281
      ESP Fit Center  143 is at  -1.685489 -2.443669 -0.367281
      ESP Fit Center  144 is at  -1.439922 -2.419980 -0.367281
      ESP Fit Center  145 is at  -1.199401 -2.365082 -0.367281
      ESP Fit Center  146 is at  -0.967874 -2.279879 -0.367281
      ESP Fit Center  147 is at  -0.749145 -2.165767 -0.367281
      ESP Fit Center  148 is at  -2.750221 -2.090586 -0.605687
      ESP Fit Center  149 is at  -2.531849 -2.210257 -0.605687
      ESP Fit Center  150 is at  -2.299476 -2.299754 -0.605687
      ESP Fit Center  151 is at  -2.057247 -2.357480 -0.605687
      ESP Fit Center  152 is at  -1.809485 -2.382405 -0.605687
      ESP Fit Center  153 is at  -1.560611 -2.374085 -0.605687
      ESP Fit Center  154 is at  -1.315068 -2.332666 -0.605687
      ESP Fit Center  155 is at  -1.077235 -2.258890 -0.605687
      ESP Fit Center  156 is at  -0.851359 -2.154072 -0.605687
      ESP Fit Center  157 is at  -2.839049 -1.916882 -0.834541
      ESP Fit Center  158 is at  -2.633927 -2.055238 -0.834541
      ESP Fit Center  159 is at  -2.411547 -2.163700 -0.834541
      ESP Fit Center  160 is at  -2.176236 -2.240157 -0.834541
      ESP Fit Center  161 is at  -1.932574 -2.283121 -0.834541
      ESP Fit Center  162 is at  -1.685304 -2.291756 -0.834541
      ESP Fit Center  163 is at  -1.439239 -2.265894 -0.834541
      ESP Fit Center  164 is at  -1.199167 -2.206037 -0.834541
      ESP Fit Center  165 is at  -0.969763 -2.113352 -0.834541
      ESP Fit Center  166 is at  -0.755490 -1.989641 -0.834541
      ESP Fit Center  167 is at  -2.778999 -1.813215 -1.050234
      ESP Fit Center  168 is at  -2.574638 -1.952546 -1.050234
      ESP Fit Center  169 is at  -2.351794 -2.059862 -1.050234
      ESP Fit Center  170 is at  -2.115443 -2.132767 -1.050234
      ESP Fit Center  171 is at  -1.870866 -2.169631 -1.050234
      ESP Fit Center  172 is at  -1.623527 -2.169631 -1.050234
      ESP Fit Center  173 is at  -1.378951 -2.132767 -1.050234
      ESP Fit Center  174 is at  -1.142600 -2.059862 -1.050234
      ESP Fit Center  175 is at  -0.919756 -1.952546 -1.050234
      ESP Fit Center  176 is at  -2.770032 -1.630470 -1.249365
      ESP Fit Center  177 is at  -2.573201 -1.783669 -1.249365
      ESP Fit Center  178 is at  -2.353840 -1.902382 -1.249365
      ESP Fit Center  179 is at  -2.117931 -1.983370 -1.249365
      ESP Fit Center  180 is at  -1.871909 -2.024423 -1.249365
      ESP Fit Center  181 is at  -1.622485 -2.024423 -1.249365
      ESP Fit Center  182 is at  -1.376463 -1.983370 -1.249365
      ESP Fit Center  183 is at  -1.140554 -1.902382 -1.249365
      ESP Fit Center  184 is at  -0.921193 -1.783669 -1.249365
      ESP Fit Center  185 is at  -2.738734 -1.423281 -1.428792
      ESP Fit Center  186 is at  -2.555759 -1.590085 -1.428792
      ESP Fit Center  187 is at  -2.345250 -1.720427 -1.428792
      ESP Fit Center  188 is at  -2.114374 -1.809869 -1.428792
      ESP Fit Center  189 is at  -1.870995 -1.855364 -1.428792
      ESP Fit Center  190 is at  -1.623399 -1.855364 -1.428792
      ESP Fit Center  191 is at  -1.380020 -1.809869 -1.428792
      ESP Fit Center  192 is at  -1.149144 -1.720427 -1.428792
      ESP Fit Center  193 is at  -0.938635 -1.590085 -1.428792
      ESP Fit Center  194 is at  -2.583587 -1.311646 -1.585687
      ESP Fit Center  195 is at  -2.393718 -1.472922 -1.585687
      ESP Fit Center  196 is at  -2.173618 -1.589612 -1.585687
      ESP Fit Center  197 is at  -1.933579 -1.656258 -1.585687
      ESP Fit Center  198 is at  -1.684826 -1.669745 -1.585687
      ESP Fit Center  199 is at  -1.438988 -1.629442 -1.585687
      ESP Fit Center  200 is at  -1.207563 -1.537234 -1.585687
      ESP Fit Center  201 is at  -1.001370 -1.397431 -1.585687
      ESP Fit Center  202 is at  -2.564930 -0.991494 -1.717575
      ESP Fit Center  203 is at  -2.414873 -1.187052 -1.717575
      ESP Fit Center  204 is at  -2.219316 -1.337109 -1.717575
      ESP Fit Center  205 is at  -1.991584 -1.431439 -1.717575
      ESP Fit Center  206 is at  -1.747197 -1.463613 -1.717575
      ESP Fit Center  207 is at  -1.502810 -1.431439 -1.717575
      ESP Fit Center  208 is at  -1.275078 -1.337109 -1.717575
      ESP Fit Center  209 is at  -1.079520 -1.187052 -1.717575
      ESP Fit Center  210 is at  -0.929464 -0.991494 -1.717575
      ESP Fit Center  211 is at  -1.872488  0.191187 -1.822376
      ESP Fit Center  212 is at  -2.425208 -0.766151 -1.822376
      ESP Fit Center  213 is at  -2.299916 -0.983162 -1.822376
      ESP Fit Center  214 is at  -2.107959 -1.144234 -1.822376
      ESP Fit Center  215 is at  -1.872488 -1.229938 -1.822376
      ESP Fit Center  216 is at  -1.621906 -1.229938 -1.822376
      ESP Fit Center  217 is at  -1.386435 -1.144234 -1.822376
      ESP Fit Center  218 is at  -1.194477 -0.983162 -1.822376
      ESP Fit Center  219 is at  -1.069186 -0.766151 -1.822376
      ESP Fit Center  220 is at  -1.259765 -0.519375 -1.898437
      ESP Fit Center  221 is at  -1.325068 -0.275659 -1.898437
      ESP Fit Center  222 is at  -1.503481 -0.097247 -1.898437
      ESP Fit Center  223 is at  -1.747197 -0.031943 -1.898437
      ESP Fit Center  224 is at  -1.990913 -0.097247 -1.898437
      ESP Fit Center  225 is at  -2.169326 -0.275659 -1.898437
      ESP Fit Center  226 is at  -2.234629 -0.519375 -1.898437
      ESP Fit Center  227 is at  -2.169326 -0.763092 -1.898437
      ESP Fit Center  228 is at  -1.990913 -0.941504 -1.898437
      ESP Fit Center  229 is at  -1.747197 -1.006808 -1.898437
      ESP Fit Center  230 is at  -1.503481 -0.941504 -1.898437
      ESP Fit Center  231 is at  -1.325068 -0.763092 -1.898437
      ESP Fit Center  232 is at  -1.501544 -0.519375 -1.944559
      ESP Fit Center  233 is at  -1.624370 -0.306634 -1.944559
      ESP Fit Center  234 is at  -1.870024 -0.306634 -1.944559
      ESP Fit Center  235 is at  -1.992850 -0.519375 -1.944559
      ESP Fit Center  236 is at  -1.870024 -0.732117 -1.944559
      ESP Fit Center  237 is at  -1.624370 -0.732117 -1.944559
      ESP Fit Center  238 is at  -1.747197 -0.519375 -1.960014
      ESP Fit Center  239 is at  -3.174772 -0.589095  1.973406
      ESP Fit Center  240 is at  -2.925329 -0.589095  1.973406
      ESP Fit Center  241 is at  -2.690929 -0.503780  1.973406
      ESP Fit Center  242 is at  -3.716483 -0.548197  1.876680
      ESP Fit Center  243 is at  -3.521289 -0.697974  1.876680
      ESP Fit Center  244 is at  -3.293982 -0.792128  1.876680
      ESP Fit Center  245 is at  -3.050050 -0.824242  1.876680
      ESP Fit Center  246 is at  -2.806119 -0.792128  1.876680
      ESP Fit Center  247 is at  -2.578811 -0.697974  1.876680
      ESP Fit Center  248 is at  -2.383617 -0.548197  1.876680
      ESP Fit Center  249 is at  -4.038837 -0.476697  1.754576
      ESP Fit Center  250 is at  -3.887826 -0.675348  1.754576
      ESP Fit Center  251 is at  -3.697643 -0.836891  1.754576
      ESP Fit Center  252 is at  -3.477178 -0.953774  1.754576
      ESP Fit Center  253 is at  -3.236742 -1.020531  1.754576
      ESP Fit Center  254 is at  -2.987576 -1.034040  1.754576
      ESP Fit Center  255 is at  -2.741331 -0.993671  1.754576
      ESP Fit Center  256 is at  -4.308752 -0.369387  1.608745
      ESP Fit Center  257 is at  -3.419455 -1.180088  1.608745
      ESP Fit Center  258 is at  -3.174599 -1.225860  1.608745
      ESP Fit Center  259 is at  -2.925501 -1.225860  1.608745
      ESP Fit Center  260 is at  -2.680645 -1.180088  1.608745
      ESP Fit Center  261 is at  -4.533149 -0.247315  1.441159
      ESP Fit Center  262 is at  -3.111556 -1.408010  1.441159
      ESP Fit Center  263 is at  -2.865932 -1.398112  1.441159
      ESP Fit Center  264 is at  -4.730015 -0.004722  1.254085
      ESP Fit Center  265 is at  -2.865819 -1.556118  1.254085
      ESP Fit Center  266 is at  -4.851765  0.365876  1.050052
      ESP Fit Center  267 is at  -4.868704  0.118236  1.050052
      ESP Fit Center  268 is at  -2.925941 -1.696178  1.050052
      ESP Fit Center  269 is at  -4.880071  0.725845  0.831819
      ESP Fit Center  270 is at  -4.942745  0.486838  0.831819
      ESP Fit Center  271 is at  -4.974342  0.241780  0.831819
      ESP Fit Center  272 is at  -4.877681  0.959079  0.602339
      ESP Fit Center  273 is at  -4.967158  0.728112  0.602339
      ESP Fit Center  274 is at  -5.027574  0.487899  0.602339
      ESP Fit Center  275 is at  -5.058013  0.242083  0.602339
      ESP Fit Center  276 is at  -2.051589  1.929340  0.364713
      ESP Fit Center  277 is at  -4.693886  1.373157  0.364713
      ESP Fit Center  278 is at  -4.830771  1.169927  0.364713
      ESP Fit Center  279 is at  -4.942659  0.951934  0.364713
      ESP Fit Center  280 is at  -5.027980  0.722238  0.364713
      ESP Fit Center  281 is at  -5.085534  0.484062  0.364713
      ESP Fit Center  282 is at  -2.262148  2.060992  0.122156
      ESP Fit Center  283 is at  -2.497454  2.140544  0.122156
      ESP Fit Center  284 is at  -2.740517  2.191707  0.122156
      ESP Fit Center  285 is at  -4.169183  1.890983  0.122156
      ESP Fit Center  286 is at  -4.370996  1.746177  0.122156
      ESP Fit Center  287 is at  -4.554266  1.578518  0.122156
      ESP Fit Center  288 is at  -4.716421  1.390360  0.122156
      ESP Fit Center  289 is at  -4.855183  1.184345  0.122156
      ESP Fit Center  290 is at  -4.968605  0.963363  0.122156
      ESP Fit Center  291 is at  -5.055094  0.730518  0.122156
      ESP Fit Center  292 is at  -5.113438  0.489077  0.122156
      ESP Fit Center  293 is at  -2.262148  2.060992 -0.122052
      ESP Fit Center  294 is at  -2.497454  2.140544 -0.122052
      ESP Fit Center  295 is at  -2.740517  2.191707 -0.122052
      ESP Fit Center  296 is at  -4.169183  1.890983 -0.122052
      ESP Fit Center  297 is at  -4.370996  1.746177 -0.122052
      ESP Fit Center  298 is at  -4.554266  1.578518 -0.122052
      ESP Fit Center  299 is at  -4.716421  1.390360 -0.122052
      ESP Fit Center  300 is at  -4.855183  1.184345 -0.122052
      ESP Fit Center  301 is at  -4.968605  0.963363 -0.122052
      ESP Fit Center  302 is at  -5.055094  0.730518 -0.122052
      ESP Fit Center  303 is at  -5.113438  0.489077 -0.122052
      ESP Fit Center  304 is at  -2.051589  1.929340 -0.364609
      ESP Fit Center  305 is at  -4.693886  1.373157 -0.364609
      ESP Fit Center  306 is at  -4.830771  1.169927 -0.364609
      ESP Fit Center  307 is at  -4.942659  0.951934 -0.364609
      ESP Fit Center  308 is at  -5.027980  0.722238 -0.364609
      ESP Fit Center  309 is at  -5.085534  0.484062 -0.364609
      ESP Fit Center  310 is at  -4.877681  0.959079 -0.602235
      ESP Fit Center  311 is at  -4.967158  0.728112 -0.602235
      ESP Fit Center  312 is at  -5.027574  0.487899 -0.602235
      ESP Fit Center  313 is at  -5.058013  0.242083 -0.602235
      ESP Fit Center  314 is at  -4.880071  0.725845 -0.831716
      ESP Fit Center  315 is at  -4.942745  0.486838 -0.831716
      ESP Fit Center  316 is at  -4.974342  0.241780 -0.831716
      ESP Fit Center  317 is at  -4.851765  0.365876 -1.049948
      ESP Fit Center  318 is at  -4.868704  0.118236 -1.049948
      ESP Fit Center  319 is at  -2.925941 -1.696178 -1.049948
      ESP Fit Center  320 is at  -4.730015 -0.004722 -1.253981
      ESP Fit Center  321 is at  -2.865819 -1.556118 -1.253981
      ESP Fit Center  322 is at  -4.533149 -0.247315 -1.441056
      ESP Fit Center  323 is at  -3.111556 -1.408010 -1.441056
      ESP Fit Center  324 is at  -2.865932 -1.398112 -1.441056
      ESP Fit Center  325 is at  -4.308752 -0.369387 -1.608641
      ESP Fit Center  326 is at  -3.419455 -1.180088 -1.608641
      ESP Fit Center  327 is at  -3.174599 -1.225860 -1.608641
      ESP Fit Center  328 is at  -2.925501 -1.225860 -1.608641
      ESP Fit Center  329 is at  -2.680645 -1.180088 -1.608641
      ESP Fit Center  330 is at  -4.038837 -0.476697 -1.754473
      ESP Fit Center  331 is at  -3.887826 -0.675348 -1.754473
      ESP Fit Center  332 is at  -3.697643 -0.836891 -1.754473
      ESP Fit Center  333 is at  -3.477178 -0.953774 -1.754473
      ESP Fit Center  334 is at  -3.236742 -1.020531 -1.754473
      ESP Fit Center  335 is at  -2.987576 -1.034040 -1.754473
      ESP Fit Center  336 is at  -2.741331 -0.993671 -1.754473
      ESP Fit Center  337 is at  -3.716483 -0.548197 -1.876577
      ESP Fit Center  338 is at  -3.521289 -0.697974 -1.876577
      ESP Fit Center  339 is at  -3.293982 -0.792128 -1.876577
      ESP Fit Center  340 is at  -3.050050 -0.824242 -1.876577
      ESP Fit Center  341 is at  -2.806119 -0.792128 -1.876577
      ESP Fit Center  342 is at  -2.578811 -0.697974 -1.876577
      ESP Fit Center  343 is at  -2.383617 -0.548197 -1.876577
      ESP Fit Center  344 is at  -3.174772 -0.589095 -1.973303
      ESP Fit Center  345 is at  -2.925329 -0.589095 -1.973303
      ESP Fit Center  346 is at  -2.690929 -0.503780 -1.973303
      ESP Fit Center  347 is at  -0.992591 -0.206445  1.973311
      ESP Fit Center  348 is at  -0.758191 -0.291759  1.973311
      ESP Fit Center  349 is at  -0.508748 -0.291759  1.973311
      ESP Fit Center  350 is at  -1.104709 -0.400639  1.876585
      ESP Fit Center  351 is at  -0.877401 -0.494793  1.876585
      ESP Fit Center  352 is at  -0.633469 -0.526907  1.876585
      ESP Fit Center  353 is at  -0.820161 -0.723196  1.754481
      ESP Fit Center  354 is at   0.572188  2.095872  0.364618
      ESP Fit Center  355 is at   0.588716  2.118907  0.122061
      ESP Fit Center  356 is at   0.378679  2.251503  0.122061
      ESP Fit Center  357 is at   0.154433  2.358327  0.122061
      ESP Fit Center  358 is at  -0.080873  2.437879  0.122061
      ESP Fit Center  359 is at  -1.535078  2.308239  0.122061
      ESP Fit Center  360 is at  -1.752602  2.188319  0.122061
      ESP Fit Center  361 is at  -1.954415  2.043513  0.122061
      ESP Fit Center  362 is at   0.588716  2.118907 -0.122147
      ESP Fit Center  363 is at   0.378679  2.251503 -0.122147
      ESP Fit Center  364 is at   0.154433  2.358327 -0.122147
      ESP Fit Center  365 is at  -0.080873  2.437879 -0.122147
      ESP Fit Center  366 is at  -1.535078  2.308239 -0.122147
      ESP Fit Center  367 is at  -1.752602  2.188319 -0.122147
      ESP Fit Center  368 is at  -1.954415  2.043513 -0.122147
      ESP Fit Center  369 is at   0.572188  2.095872 -0.364704
      ESP Fit Center  370 is at  -0.820161 -0.723196 -1.754568
      ESP Fit Center  371 is at  -1.104709 -0.400639 -1.876672
      ESP Fit Center  372 is at  -0.877401 -0.494793 -1.876672
      ESP Fit Center  373 is at  -0.633469 -0.526907 -1.876672
      ESP Fit Center  374 is at  -0.992591 -0.206445 -1.973398
      ESP Fit Center  375 is at  -0.758191 -0.291759 -1.973398
      ESP Fit Center  376 is at  -0.508748 -0.291759 -1.973398
      ESP Fit Center  377 is at   0.992589  0.206452  1.973302
      ESP Fit Center  378 is at   0.758189  0.291766  1.973302
      ESP Fit Center  379 is at   0.508746  0.291766  1.973302
      ESP Fit Center  380 is at   1.104707  0.400646  1.876576
      ESP Fit Center  381 is at   0.877399  0.494800  1.876576
      ESP Fit Center  382 is at   0.633467  0.526914  1.876576
      ESP Fit Center  383 is at   2.029397 -1.941475  0.364609
      ESP Fit Center  384 is at  -0.485665 -2.188312  0.122052
      ESP Fit Center  385 is at  -0.268142 -2.308232  0.122052
      ESP Fit Center  386 is at  -0.037961 -2.401584  0.122052
      ESP Fit Center  387 is at   1.421370 -2.358320  0.122052
      ESP Fit Center  388 is at   1.645616 -2.251496  0.122052
      ESP Fit Center  389 is at   1.855653 -2.118900  0.122052
      ESP Fit Center  390 is at   2.048534 -1.962393  0.122052
      ESP Fit Center  391 is at  -0.485665 -2.188312 -0.122157
      ESP Fit Center  392 is at  -0.268142 -2.308232 -0.122157
      ESP Fit Center  393 is at  -0.037961 -2.401584 -0.122157
      ESP Fit Center  394 is at   1.421370 -2.358320 -0.122157
      ESP Fit Center  395 is at   1.645616 -2.251496 -0.122157
      ESP Fit Center  396 is at   1.855653 -2.118900 -0.122157
      ESP Fit Center  397 is at   2.048534 -1.962393 -0.122157
      ESP Fit Center  398 is at   2.029397 -1.941475 -0.364714
      ESP Fit Center  399 is at   1.104707  0.400646 -1.876681
      ESP Fit Center  400 is at   0.877399  0.494800 -1.876681
      ESP Fit Center  401 is at   0.633467  0.526914 -1.876681
      ESP Fit Center  402 is at   0.992589  0.206452 -1.973407
      ESP Fit Center  403 is at   0.758189  0.291766 -1.973407
      ESP Fit Center  404 is at   0.508746  0.291766 -1.973407
      ESP Fit Center  405 is at   1.747200  0.519379  1.959977
      ESP Fit Center  406 is at   1.992853  0.519379  1.944522
      ESP Fit Center  407 is at   1.870026  0.732120  1.944522
      ESP Fit Center  408 is at   1.624373  0.732120  1.944522
      ESP Fit Center  409 is at   1.501547  0.519379  1.944522
      ESP Fit Center  410 is at   1.624373  0.306637  1.944522
      ESP Fit Center  411 is at   1.870026  0.306637  1.944522
      ESP Fit Center  412 is at   2.234632  0.519379  1.898400
      ESP Fit Center  413 is at   2.169328  0.763095  1.898400
      ESP Fit Center  414 is at   1.990916  0.941507  1.898400
      ESP Fit Center  415 is at   1.747200  1.006811  1.898400
      ESP Fit Center  416 is at   1.503484  0.941507  1.898400
      ESP Fit Center  417 is at   1.325071  0.763095  1.898400
      ESP Fit Center  418 is at   1.259768  0.519379  1.898400
      ESP Fit Center  419 is at   1.325071  0.275663  1.898400
      ESP Fit Center  420 is at   1.503484  0.097250  1.898400
      ESP Fit Center  421 is at   1.747200  0.031946  1.898400
      ESP Fit Center  422 is at   1.990916  0.097250  1.898400
      ESP Fit Center  423 is at   2.169328  0.275663  1.898400
      ESP Fit Center  424 is at   2.425211  0.766154  1.822339
      ESP Fit Center  425 is at   2.299919  0.983165  1.822339
      ESP Fit Center  426 is at   2.107962  1.144237  1.822339
      ESP Fit Center  427 is at   1.872491  1.229941  1.822339
      ESP Fit Center  428 is at   1.621908  1.229941  1.822339
      ESP Fit Center  429 is at   1.386438  1.144237  1.822339
      ESP Fit Center  430 is at   1.194480  0.983165  1.822339
      ESP Fit Center  431 is at   1.069189  0.766154  1.822339
      ESP Fit Center  432 is at   1.872491 -0.191184  1.822339
      ESP Fit Center  433 is at   2.564933  0.991497  1.717538
      ESP Fit Center  434 is at   2.414876  1.187055  1.717538
      ESP Fit Center  435 is at   2.219318  1.337112  1.717538
      ESP Fit Center  436 is at   1.991586  1.431442  1.717538
      ESP Fit Center  437 is at   1.747200  1.463616  1.717538
      ESP Fit Center  438 is at   1.502813  1.431442  1.717538
      ESP Fit Center  439 is at   1.275081  1.337112  1.717538
      ESP Fit Center  440 is at   1.079523  1.187055  1.717538
      ESP Fit Center  441 is at   0.929466  0.991497  1.717538
      ESP Fit Center  442 is at   2.664346  1.216575  1.585651
      ESP Fit Center  443 is at   2.493027  1.397434  1.585651
      ESP Fit Center  444 is at   2.286834  1.537237  1.585651
      ESP Fit Center  445 is at   2.055408  1.629445  1.585651
      ESP Fit Center  446 is at   1.809571  1.669748  1.585651
      ESP Fit Center  447 is at   1.560817  1.656261  1.585651
      ESP Fit Center  448 is at   1.320779  1.589615  1.585651
      ESP Fit Center  449 is at   1.100679  1.472925  1.585651
      ESP Fit Center  450 is at   0.910810  1.311649  1.585651
      ESP Fit Center  451 is at   2.738737  1.423284  1.428756
      ESP Fit Center  452 is at   2.555762  1.590088  1.428756
      ESP Fit Center  453 is at   2.345252  1.720430  1.428756
      ESP Fit Center  454 is at   2.114377  1.809872  1.428756
      ESP Fit Center  455 is at   1.870997  1.855367  1.428756
      ESP Fit Center  456 is at   1.623402  1.855367  1.428756
      ESP Fit Center  457 is at   1.380023  1.809872  1.428756
      ESP Fit Center  458 is at   1.149147  1.720430  1.428756
      ESP Fit Center  459 is at   0.938637  1.590088  1.428756
      ESP Fit Center  460 is at   2.770034  1.630473  1.249328
      ESP Fit Center  461 is at   2.573204  1.783672  1.249328
      ESP Fit Center  462 is at   2.353843  1.902385  1.249328
      ESP Fit Center  463 is at   2.117933  1.983373  1.249328
      ESP Fit Center  464 is at   1.871912  2.024426  1.249328
      ESP Fit Center  465 is at   1.622488  2.024426  1.249328
      ESP Fit Center  466 is at   1.376466  1.983373  1.249328
      ESP Fit Center  467 is at   1.140557  1.902385  1.249328
      ESP Fit Center  468 is at   0.921195  1.783672  1.249328
      ESP Fit Center  469 is at   2.779002  1.813218  1.050198
      ESP Fit Center  470 is at   2.574641  1.952549  1.050198
      ESP Fit Center  471 is at   2.351796  2.059866  1.050198
      ESP Fit Center  472 is at   2.115446  2.132770  1.050198
      ESP Fit Center  473 is at   1.870869  2.169634  1.050198
      ESP Fit Center  474 is at   1.623530  2.169634  1.050198
      ESP Fit Center  475 is at   1.378954  2.132770  1.050198
      ESP Fit Center  476 is at   1.142603  2.059866  1.050198
      ESP Fit Center  477 is at   0.919758  1.952549  1.050198
      ESP Fit Center  478 is at   2.738907  1.989644  0.834505
      ESP Fit Center  479 is at   2.524634  2.113355  0.834505
      ESP Fit Center  480 is at   2.295229  2.206040  0.834505
      ESP Fit Center  481 is at   2.055158  2.265897  0.834505
      ESP Fit Center  482 is at   1.809093  2.291759  0.834505
      ESP Fit Center  483 is at   1.561823  2.283124  0.834505
      ESP Fit Center  484 is at   1.318161  2.240160  0.834505
      ESP Fit Center  485 is at   1.082850  2.163703  0.834505
      ESP Fit Center  486 is at   0.860469  2.055241  0.834505
      ESP Fit Center  487 is at   2.852929  2.020086  0.605651
      ESP Fit Center  488 is at   2.643038  2.154075  0.605651
      ESP Fit Center  489 is at   2.417161  2.258893  0.605651
      ESP Fit Center  490 is at   2.179329  2.332670  0.605651
      ESP Fit Center  491 is at   1.933785  2.374088  0.605651
      ESP Fit Center  492 is at   1.684912  2.382408  0.605651
      ESP Fit Center  493 is at   1.437150  2.357483  0.605651
      ESP Fit Center  494 is at   1.194921  2.299757  0.605651
      ESP Fit Center  495 is at   0.962548  2.210260  0.605651
      ESP Fit Center  496 is at   0.744176  2.090589  0.605651
      ESP Fit Center  497 is at   2.745252  2.165770  0.367245
      ESP Fit Center  498 is at   2.526522  2.279882  0.367245
      ESP Fit Center  499 is at   2.294996  2.365086  0.367245
      ESP Fit Center  500 is at   2.054475  2.419983  0.367245
      ESP Fit Center  501 is at   1.808908  2.443672  0.367245
      ESP Fit Center  502 is at   1.562328  2.435765  0.367245
      ESP Fit Center  503 is at   1.318784  2.396391  0.367245
      ESP Fit Center  504 is at   1.082274  2.326196  0.367245
      ESP Fit Center  505 is at   0.856683  2.226333  0.367245
      ESP Fit Center  506 is at   0.645713  2.098442  0.367245
      ESP Fit Center  507 is at   2.761244  2.192151  0.123047
      ESP Fit Center  508 is at   2.539010  2.308091  0.123047
      ESP Fit Center  509 is at   2.303773  2.394660  0.123047
      ESP Fit Center  510 is at   2.059398  2.450437  0.123047
      ESP Fit Center  511 is at   1.809897  2.474506  0.123047
      ESP Fit Center  512 is at   1.559366  2.466472  0.123047
      ESP Fit Center  513 is at   1.311919  2.426467  0.123047
      ESP Fit Center  514 is at   1.071620  2.355147  0.123047
      ESP Fit Center  515 is at   0.842414  2.253684  0.123047
      ESP Fit Center  516 is at   0.628064  2.123744  0.123047
      ESP Fit Center  517 is at   2.761244  2.192151 -0.123092
      ESP Fit Center  518 is at   2.539010  2.308091 -0.123092
      ESP Fit Center  519 is at   2.303773  2.394660 -0.123092
      ESP Fit Center  520 is at   2.059398  2.450437 -0.123092
      ESP Fit Center  521 is at   1.809897  2.474506 -0.123092
      ESP Fit Center  522 is at   1.559366  2.466472 -0.123092
      ESP Fit Center  523 is at   1.311919  2.426467 -0.123092
      ESP Fit Center  524 is at   1.071620  2.355147 -0.123092
      ESP Fit Center  525 is at   0.842414  2.253684 -0.123092
      ESP Fit Center  526 is at   0.628064  2.123744 -0.123092
      ESP Fit Center  527 is at   2.745252  2.165770 -0.367290
      ESP Fit Center  528 is at   2.526522  2.279882 -0.367290
      ESP Fit Center  529 is at   2.294996  2.365086 -0.367290
      ESP Fit Center  530 is at   2.054475  2.419983 -0.367290
      ESP Fit Center  531 is at   1.808908  2.443672 -0.367290
      ESP Fit Center  532 is at   1.562328  2.435765 -0.367290
      ESP Fit Center  533 is at   1.318784  2.396391 -0.367290
      ESP Fit Center  534 is at   1.082274  2.326196 -0.367290
      ESP Fit Center  535 is at   0.856683  2.226333 -0.367290
      ESP Fit Center  536 is at   0.645713  2.098442 -0.367290
      ESP Fit Center  537 is at   2.852929  2.020086 -0.605696
      ESP Fit Center  538 is at   2.643038  2.154075 -0.605696
      ESP Fit Center  539 is at   2.417161  2.258893 -0.605696
      ESP Fit Center  540 is at   2.179329  2.332670 -0.605696
      ESP Fit Center  541 is at   1.933785  2.374088 -0.605696
      ESP Fit Center  542 is at   1.684912  2.382408 -0.605696
      ESP Fit Center  543 is at   1.437150  2.357483 -0.605696
      ESP Fit Center  544 is at   1.194921  2.299757 -0.605696
      ESP Fit Center  545 is at   0.962548  2.210260 -0.605696
      ESP Fit Center  546 is at   0.744176  2.090589 -0.605696
      ESP Fit Center  547 is at   2.738907  1.989644 -0.834550
      ESP Fit Center  548 is at   2.524634  2.113355 -0.834550
      ESP Fit Center  549 is at   2.295229  2.206040 -0.834550
      ESP Fit Center  550 is at   2.055158  2.265897 -0.834550
      ESP Fit Center  551 is at   1.809093  2.291759 -0.834550
      ESP Fit Center  552 is at   1.561823  2.283124 -0.834550
      ESP Fit Center  553 is at   1.318161  2.240160 -0.834550
      ESP Fit Center  554 is at   1.082850  2.163703 -0.834550
      ESP Fit Center  555 is at   0.860469  2.055241 -0.834550
      ESP Fit Center  556 is at   2.779002  1.813218 -1.050243
      ESP Fit Center  557 is at   2.574641  1.952549 -1.050243
      ESP Fit Center  558 is at   2.351796  2.059866 -1.050243
      ESP Fit Center  559 is at   2.115446  2.132770 -1.050243
      ESP Fit Center  560 is at   1.870869  2.169634 -1.050243
      ESP Fit Center  561 is at   1.623530  2.169634 -1.050243
      ESP Fit Center  562 is at   1.378954  2.132770 -1.050243
      ESP Fit Center  563 is at   1.142603  2.059866 -1.050243
      ESP Fit Center  564 is at   0.919758  1.952549 -1.050243
      ESP Fit Center  565 is at   2.770034  1.630473 -1.249374
      ESP Fit Center  566 is at   2.573204  1.783672 -1.249374
      ESP Fit Center  567 is at   2.353843  1.902385 -1.249374
      ESP Fit Center  568 is at   2.117933  1.983373 -1.249374
      ESP Fit Center  569 is at   1.871912  2.024426 -1.249374
      ESP Fit Center  570 is at   1.622488  2.024426 -1.249374
      ESP Fit Center  571 is at   1.376466  1.983373 -1.249374
      ESP Fit Center  572 is at   1.140557  1.902385 -1.249374
      ESP Fit Center  573 is at   0.921195  1.783672 -1.249374
      ESP Fit Center  574 is at   2.738737  1.423284 -1.428801
      ESP Fit Center  575 is at   2.555762  1.590088 -1.428801
      ESP Fit Center  576 is at   2.345252  1.720430 -1.428801
      ESP Fit Center  577 is at   2.114377  1.809872 -1.428801
      ESP Fit Center  578 is at   1.870997  1.855367 -1.428801
      ESP Fit Center  579 is at   1.623402  1.855367 -1.428801
      ESP Fit Center  580 is at   1.380023  1.809872 -1.428801
      ESP Fit Center  581 is at   1.149147  1.720430 -1.428801
      ESP Fit Center  582 is at   0.938637  1.590088 -1.428801
      ESP Fit Center  583 is at   2.664346  1.216575 -1.585696
      ESP Fit Center  584 is at   2.493027  1.397434 -1.585696
      ESP Fit Center  585 is at   2.286834  1.537237 -1.585696
      ESP Fit Center  586 is at   2.055408  1.629445 -1.585696
      ESP Fit Center  587 is at   1.809571  1.669748 -1.585696
      ESP Fit Center  588 is at   1.560817  1.656261 -1.585696
      ESP Fit Center  589 is at   1.320779  1.589615 -1.585696
      ESP Fit Center  590 is at   1.100679  1.472925 -1.585696
      ESP Fit Center  591 is at   0.910810  1.311649 -1.585696
      ESP Fit Center  592 is at   2.564933  0.991497 -1.717584
      ESP Fit Center  593 is at   2.414876  1.187055 -1.717584
      ESP Fit Center  594 is at   2.219318  1.337112 -1.717584
      ESP Fit Center  595 is at   1.991586  1.431442 -1.717584
      ESP Fit Center  596 is at   1.747200  1.463616 -1.717584
      ESP Fit Center  597 is at   1.502813  1.431442 -1.717584
      ESP Fit Center  598 is at   1.275081  1.337112 -1.717584
      ESP Fit Center  599 is at   1.079523  1.187055 -1.717584
      ESP Fit Center  600 is at   0.929466  0.991497 -1.717584
      ESP Fit Center  601 is at   2.425211  0.766154 -1.822385
      ESP Fit Center  602 is at   2.299919  0.983165 -1.822385
      ESP Fit Center  603 is at   2.107962  1.144237 -1.822385
      ESP Fit Center  604 is at   1.872491  1.229941 -1.822385
      ESP Fit Center  605 is at   1.621908  1.229941 -1.822385
      ESP Fit Center  606 is at   1.386438  1.144237 -1.822385
      ESP Fit Center  607 is at   1.194480  0.983165 -1.822385
      ESP Fit Center  608 is at   1.069189  0.766154 -1.822385
      ESP Fit Center  609 is at   1.872491 -0.191184 -1.822385
      ESP Fit Center  610 is at   2.234632  0.519379 -1.898446
      ESP Fit Center  611 is at   2.169328  0.763095 -1.898446
      ESP Fit Center  612 is at   1.990916  0.941507 -1.898446
      ESP Fit Center  613 is at   1.747200  1.006811 -1.898446
      ESP Fit Center  614 is at   1.503484  0.941507 -1.898446
      ESP Fit Center  615 is at   1.325071  0.763095 -1.898446
      ESP Fit Center  616 is at   1.259768  0.519379 -1.898446
      ESP Fit Center  617 is at   1.325071  0.275663 -1.898446
      ESP Fit Center  618 is at   1.503484  0.097250 -1.898446
      ESP Fit Center  619 is at   1.747200  0.031946 -1.898446
      ESP Fit Center  620 is at   1.990916  0.097250 -1.898446
      ESP Fit Center  621 is at   2.169328  0.275663 -1.898446
      ESP Fit Center  622 is at   1.992853  0.519379 -1.944568
      ESP Fit Center  623 is at   1.870026  0.732120 -1.944568
      ESP Fit Center  624 is at   1.624373  0.732120 -1.944568
      ESP Fit Center  625 is at   1.501547  0.519379 -1.944568
      ESP Fit Center  626 is at   1.624373  0.306637 -1.944568
      ESP Fit Center  627 is at   1.870026  0.306637 -1.944568
      ESP Fit Center  628 is at   1.747200  0.519379 -1.960023
      ESP Fit Center  629 is at   3.174770  0.589086  1.973413
      ESP Fit Center  630 is at   2.925327  0.589086  1.973413
      ESP Fit Center  631 is at   2.690927  0.503771  1.973413
      ESP Fit Center  632 is at   3.716481  0.548188  1.876688
      ESP Fit Center  633 is at   3.521287  0.697965  1.876688
      ESP Fit Center  634 is at   3.293980  0.792119  1.876688
      ESP Fit Center  635 is at   3.050048  0.824233  1.876688
      ESP Fit Center  636 is at   2.806117  0.792119  1.876688
      ESP Fit Center  637 is at   2.578809  0.697965  1.876688
      ESP Fit Center  638 is at   2.383616  0.548188  1.876688
      ESP Fit Center  639 is at   3.968715  0.580107  1.754583
      ESP Fit Center  640 is at   3.797112  0.761266  1.754583
      ESP Fit Center  641 is at   3.590577  0.901300  1.754583
      ESP Fit Center  642 is at   3.358768  0.993662  1.754583
      ESP Fit Center  643 is at   3.112523  1.034032  1.754583
      ESP Fit Center  644 is at   2.863357  1.020522  1.754583
      ESP Fit Center  645 is at   2.622920  0.953765  1.754583
      ESP Fit Center  646 is at   4.308750  0.369379  1.608752
      ESP Fit Center  647 is at   3.419453  1.180079  1.608752
      ESP Fit Center  648 is at   3.174597  1.225851  1.608752
      ESP Fit Center  649 is at   2.925499  1.225851  1.608752
      ESP Fit Center  650 is at   2.680643  1.180079  1.608752
      ESP Fit Center  651 is at   4.557752  0.126781  1.441166
      ESP Fit Center  652 is at   3.234166  1.398103  1.441166
      ESP Fit Center  653 is at   2.988543  1.408001  1.441166
      ESP Fit Center  654 is at   4.734507 -0.118245  1.254092
      ESP Fit Center  655 is at   2.988528  1.565090  1.254092
      ESP Fit Center  656 is at   4.868702 -0.118245  1.050059
      ESP Fit Center  657 is at   2.925939  1.696169  1.050059
      ESP Fit Center  658 is at   4.851763 -0.365885  1.050059
      ESP Fit Center  659 is at   4.915238 -0.607355  0.831826
      ESP Fit Center  660 is at   4.962471 -0.364825  0.831826
      ESP Fit Center  661 is at   4.822449 -1.070004  0.602346
      ESP Fit Center  662 is at   4.925975 -0.844983  0.602346
      ESP Fit Center  663 is at   5.001064 -0.608945  0.602346
      ESP Fit Center  664 is at   5.046578 -0.365469  0.602346
      ESP Fit Center  665 is at   2.160632 -1.985318  0.364720
      ESP Fit Center  666 is at   4.616654 -1.468344  0.364720
      ESP Fit Center  667 is at   4.765339 -1.273580  0.364720
      ESP Fit Center  668 is at   4.889945 -1.062598  0.364720
      ESP Fit Center  669 is at   4.988722 -0.838359  0.364720
      ESP Fit Center  670 is at   5.060285 -0.604012  0.364720
      ESP Fit Center  671 is at   5.103629 -0.362845  0.364720
      ESP Fit Center  672 is at   2.148439 -2.010913  0.122163
      ESP Fit Center  673 is at   2.378619 -2.104265  0.122163
      ESP Fit Center  674 is at   2.618225 -2.169737  0.122163
      ESP Fit Center  675 is at   2.863892 -2.206411  0.122163
      ESP Fit Center  676 is at   4.062197 -1.954177  0.122163
      ESP Fit Center  677 is at   4.272234 -1.821581  0.122163
      ESP Fit Center  678 is at   4.465114 -1.665073  0.122163
      ESP Fit Center  679 is at   4.638131 -1.486852  0.122163
      ESP Fit Center  680 is at   4.788853 -1.289418  0.122163
      ESP Fit Center  681 is at   4.915167 -1.075544  0.122163
      ESP Fit Center  682 is at   5.015299 -0.848231  0.122163
      ESP Fit Center  683 is at   5.087843 -0.610671  0.122163
      ESP Fit Center  684 is at   5.131781 -0.366198  0.122163
      ESP Fit Center  685 is at   2.148439 -2.010913 -0.122045
      ESP Fit Center  686 is at   2.378619 -2.104265 -0.122045
      ESP Fit Center  687 is at   2.618225 -2.169737 -0.122045
      ESP Fit Center  688 is at   2.863892 -2.206411 -0.122045
      ESP Fit Center  689 is at   4.062197 -1.954177 -0.122045
      ESP Fit Center  690 is at   4.272234 -1.821581 -0.122045
      ESP Fit Center  691 is at   4.465114 -1.665073 -0.122045
      ESP Fit Center  692 is at   4.638131 -1.486852 -0.122045
      ESP Fit Center  693 is at   4.788853 -1.289418 -0.122045
      ESP Fit Center  694 is at   4.915167 -1.075544 -0.122045
      ESP Fit Center  695 is at   5.015299 -0.848231 -0.122045
      ESP Fit Center  696 is at   5.087843 -0.610671 -0.122045
      ESP Fit Center  697 is at   5.131781 -0.366198 -0.122045
      ESP Fit Center  698 is at   2.160632 -1.985318 -0.364602
      ESP Fit Center  699 is at   4.616654 -1.468344 -0.364602
      ESP Fit Center  700 is at   4.765339 -1.273580 -0.364602
      ESP Fit Center  701 is at   4.889945 -1.062598 -0.364602
      ESP Fit Center  702 is at   4.988722 -0.838359 -0.364602
      ESP Fit Center  703 is at   5.060285 -0.604012 -0.364602
      ESP Fit Center  704 is at   5.103629 -0.362845 -0.364602
      ESP Fit Center  705 is at   4.822449 -1.070004 -0.602228
      ESP Fit Center  706 is at   4.925975 -0.844983 -0.602228
      ESP Fit Center  707 is at   5.001064 -0.608945 -0.602228
      ESP Fit Center  708 is at   5.046578 -0.365469 -0.602228
      ESP Fit Center  709 is at   4.915238 -0.607355 -0.831709
      ESP Fit Center  710 is at   4.962471 -0.364825 -0.831709
      ESP Fit Center  711 is at   4.868702 -0.118245 -1.049941
      ESP Fit Center  712 is at   2.925939  1.696169 -1.049941
      ESP Fit Center  713 is at   4.851763 -0.365885 -1.049941
      ESP Fit Center  714 is at   4.734507 -0.118245 -1.253974
      ESP Fit Center  715 is at   2.988528  1.565090 -1.253974
      ESP Fit Center  716 is at   4.557752  0.126781 -1.441048
      ESP Fit Center  717 is at   3.234166  1.398103 -1.441048
      ESP Fit Center  718 is at   2.988543  1.408001 -1.441048
      ESP Fit Center  719 is at   4.308750  0.369379 -1.608634
      ESP Fit Center  720 is at   3.419453  1.180079 -1.608634
      ESP Fit Center  721 is at   3.174597  1.225851 -1.608634
      ESP Fit Center  722 is at   2.925499  1.225851 -1.608634
      ESP Fit Center  723 is at   2.680643  1.180079 -1.608634
      ESP Fit Center  724 is at   3.968715  0.580107 -1.754465
      ESP Fit Center  725 is at   3.797112  0.761266 -1.754465
      ESP Fit Center  726 is at   3.590577  0.901300 -1.754465
      ESP Fit Center  727 is at   3.358768  0.993662 -1.754465
      ESP Fit Center  728 is at   3.112523  1.034032 -1.754465
      ESP Fit Center  729 is at   2.863357  1.020522 -1.754465
      ESP Fit Center  730 is at   2.622920  0.953765 -1.754465
      ESP Fit Center  731 is at   3.716481  0.548188 -1.876570
      ESP Fit Center  732 is at   3.521287  0.697965 -1.876570
      ESP Fit Center  733 is at   3.293980  0.792119 -1.876570
      ESP Fit Center  734 is at   3.050048  0.824233 -1.876570
      ESP Fit Center  735 is at   2.806117  0.792119 -1.876570
      ESP Fit Center  736 is at   2.578809  0.697965 -1.876570
      ESP Fit Center  737 is at   2.383616  0.548188 -1.876570
      ESP Fit Center  738 is at   3.174770  0.589086 -1.973296
      ESP Fit Center  739 is at   2.925327  0.589086 -1.973296
      ESP Fit Center  740 is at   2.690927  0.503771 -1.973296
      ESP Fit Center  741 is at  -3.906811 -0.901848  1.661302
      ESP Fit Center  742 is at  -4.276805 -0.685003  1.605429
      ESP Fit Center  743 is at  -4.210462 -0.932597  1.605429
      ESP Fit Center  744 is at  -4.029210 -1.113849  1.605429
      ESP Fit Center  745 is at  -3.781616 -1.180192  1.605429
      ESP Fit Center  746 is at  -4.466581 -0.435696  1.513694
      ESP Fit Center  747 is at  -4.510540 -0.685003  1.513694
      ESP Fit Center  748 is at  -4.466581 -0.934310  1.513694
      ESP Fit Center  749 is at  -4.340005 -1.153547  1.513694
      ESP Fit Center  750 is at  -4.146078 -1.316270  1.513694
      ESP Fit Center  751 is at  -3.908192 -1.402854  1.513694
      ESP Fit Center  752 is at  -3.655039 -1.402854  1.513694
      ESP Fit Center  753 is at  -3.417153 -1.316270  1.513694
      ESP Fit Center  754 is at  -4.601203 -0.211814  1.388148
      ESP Fit Center  755 is at  -4.695746 -0.440062  1.388148
      ESP Fit Center  756 is at  -4.727994 -0.685003  1.388148
      ESP Fit Center  757 is at  -4.695746 -0.929943  1.388148
      ESP Fit Center  758 is at  -4.601203 -1.158192  1.388148
      ESP Fit Center  759 is at  -4.450806 -1.354193  1.388148
      ESP Fit Center  760 is at  -4.254805 -1.504590  1.388148
      ESP Fit Center  761 is at  -4.026556 -1.599134  1.388148
      ESP Fit Center  762 is at  -3.781616 -1.631381  1.388148
      ESP Fit Center  763 is at  -3.536675 -1.599134  1.388148
      ESP Fit Center  764 is at  -3.308427 -1.504590  1.388148
      ESP Fit Center  765 is at  -4.760738 -0.095885  1.231594
      ESP Fit Center  766 is at  -4.864490 -0.320140  1.231594
      ESP Fit Center  767 is at  -4.917608 -0.561456  1.231594
      ESP Fit Center  768 is at  -4.917608 -0.808549  1.231594
      ESP Fit Center  769 is at  -4.864490 -1.049866  1.231594
      ESP Fit Center  770 is at  -4.760738 -1.274121  1.231594
      ESP Fit Center  771 is at  -4.611204 -1.470830  1.231594
      ESP Fit Center  772 is at  -4.422879 -1.630795  1.231594
      ESP Fit Center  773 is at  -4.204569 -1.746535  1.231594
      ESP Fit Center  774 is at  -3.966483 -1.812640  1.231594
      ESP Fit Center  775 is at  -3.719752 -1.826017  1.231594
      ESP Fit Center  776 is at  -3.475914 -1.786042  1.231594
      ESP Fit Center  777 is at  -3.246370 -1.694583  1.231594
      ESP Fit Center  778 is at  -4.949081 -0.083133  1.047529
      ESP Fit Center  779 is at  -5.041888 -0.314954  1.047529
      ESP Fit Center  780 is at  -5.089145 -0.560149  1.047529
      ESP Fit Center  781 is at  -5.089145 -0.809857  1.047529
      ESP Fit Center  782 is at  -5.041888 -1.055052  1.047529
      ESP Fit Center  783 is at  -4.949081 -1.286873  1.047529
      ESP Fit Center  784 is at  -4.814078 -1.496940  1.047529
      ESP Fit Center  785 is at  -4.641760 -1.677663  1.047529
      ESP Fit Center  786 is at  -4.438354 -1.822507  1.047529
      ESP Fit Center  787 is at  -4.211212 -1.926240  1.047529
      ESP Fit Center  788 is at  -3.968543 -1.985110  1.047529
      ESP Fit Center  789 is at  -3.719118 -1.996992  1.047529
      ESP Fit Center  790 is at  -3.471952 -1.961455  1.047529
      ESP Fit Center  791 is at  -3.235978 -1.879784  1.047529
      ESP Fit Center  792 is at  -3.019724 -1.754930  1.047529
      ESP Fit Center  793 is at  -4.987033  0.129717  0.840067
      ESP Fit Center  794 is at  -5.107383 -0.085718  0.840067
      ESP Fit Center  795 is at  -5.189592 -0.318394  0.840067
      ESP Fit Center  796 is at  -5.231297 -0.561617  0.840067
      ESP Fit Center  797 is at  -5.231297 -0.808389  0.840067
      ESP Fit Center  798 is at  -5.189592 -1.051611  0.840067
      ESP Fit Center  799 is at  -5.107383 -1.284287  0.840067
      ESP Fit Center  800 is at  -4.987033 -1.499723  0.840067
      ESP Fit Center  801 is at  -4.832006 -1.691720  0.840067
      ESP Fit Center  802 is at  -4.646761 -1.854757  0.840067
      ESP Fit Center  803 is at  -4.436627 -1.984141  0.840067
      ESP Fit Center  804 is at  -4.207650 -2.076152  0.840067
      ESP Fit Center  805 is at  -3.966417 -2.128141  0.840067
      ESP Fit Center  806 is at  -3.719867 -2.138615  0.840067
      ESP Fit Center  807 is at  -3.475094 -2.107270  0.840067
      ESP Fit Center  808 is at  -3.239138 -2.035010  0.840067
[...]
 **** Fit      -0.001675
 **** Fit      -0.002468
 **** Fit      -0.003352
 **** Fit      -0.004342
 **** Fit      -0.005452
 **** Fit      -0.006701
 **** Fit      -0.008111
 **** Fit       0.003856
 **** Fit       0.003620
 **** Fit       0.003376
 **** Fit       0.003120
 **** Fit       0.002845
 **** Fit       0.002547
 **** Fit       0.002222
 **** Fit       0.001864
 **** Fit       0.001469
 **** Fit       0.001031
 **** Fit       0.000544
 **** Fit       0.000004
 **** Fit      -0.000598
 **** Fit      -0.001268
 **** Fit      -0.002014
 **** Fit      -0.002847
 **** Fit      -0.003778
 **** Fit      -0.004821
 **** Fit      -0.005993
 **** Fit      -0.007313
 **** Fit       0.003495
 **** Fit       0.003243
 **** Fit       0.002977
 **** Fit       0.002692
 **** Fit       0.002383
 **** Fit       0.002045
 **** Fit       0.001673
 **** Fit       0.001261
 **** Fit       0.000804
 **** Fit       0.000297
 **** Fit      -0.000268
 **** Fit      -0.000896
 **** Fit      -0.001595
 **** Fit      -0.002376
 **** Fit      -0.003247
 **** Fit      -0.004222
 **** Fit      -0.005314
 **** Fit      -0.006541
 **** Fit       0.003343
 **** Fit       0.003078
 **** Fit       0.002797
 **** Fit       0.002496
 **** Fit       0.002169
 **** Fit       0.001809
 **** Fit       0.001413
 **** Fit       0.000973
 **** Fit       0.000485
 **** Fit      -0.000059
 **** Fit      -0.000664
 **** Fit      -0.001340
 **** Fit      -0.002093
 **** Fit      -0.002935
 **** Fit      -0.003877
 **** Fit      -0.004931
 **** Fit      -0.006114
 **** Fit       0.003167
 **** Fit       0.002887
 **** Fit       0.002591
 **** Fit       0.002272
 **** Fit       0.001925
 **** Fit       0.001544
 **** Fit       0.001121
 **** Fit       0.000653
 **** Fit       0.000131
 **** Fit      -0.000450
 **** Fit      -0.001099
 **** Fit      -0.001823
 **** Fit      -0.002632
 **** Fit      -0.003536
 **** Fit      -0.004547
 **** Fit       0.002661
 **** Fit       0.002342
 **** Fit       0.001998
 **** Fit       0.001621
 **** Fit       0.001206
 **** Fit       0.000744
 **** Fit       0.000230
 **** Fit      -0.000344
 **** Fit      -0.000985
 **** Fit      -0.001702
 **** Fit      -0.002504
 **** Fit      -0.003401
 **** Fit      -0.004405
 **** Fit       0.002064
 **** Fit       0.001691
 **** Fit       0.001281
 **** Fit       0.000828
 **** Fit       0.000323
 **** Fit      -0.000242
 **** Fit      -0.000873
 **** Fit      -0.001579
 **** Fit      -0.002370
 **** Fit      -0.003255
 **** Fit       0.001317
 **** Fit       0.000859
 **** Fit       0.000348
 **** Fit      -0.000223
 **** Fit      -0.000865
 **** Fit      -0.001584
 **** Fit      -0.002391
 **** Fit       0.003925
 **** Fit       0.004114
 **** Fit       0.004289
 **** Fit       0.004451
 **** Fit       0.003042
 **** Fit       0.003271
 **** Fit       0.003489
 **** Fit       0.003694
 **** Fit       0.003886
 **** Fit       0.004065
 **** Fit       0.004230
 **** Fit       0.004383
 **** Fit       0.004524
 **** Fit       0.004651
 **** Fit       0.004766
 **** Fit       0.004868
 **** Fit       0.003007
 **** Fit       0.003222
 **** Fit       0.003430
 **** Fit       0.003627
 **** Fit       0.003813
 **** Fit       0.003987
 **** Fit       0.004148
 **** Fit       0.004295
 **** Fit       0.004430
 **** Fit       0.004552
 **** Fit       0.004660
 **** Fit       0.004755
 **** Fit       0.004837
 **** Fit       0.004906
 **** Fit       0.002929
 **** Fit       0.003130
 **** Fit       0.003330
 **** Fit       0.003523
 **** Fit       0.003706
 **** Fit       0.003878
 **** Fit       0.004038
 **** Fit       0.004184
 **** Fit       0.004318
 **** Fit       0.004437
 **** Fit       0.004542
 **** Fit       0.004633
 **** Fit       0.004710
 **** Fit       0.004773
 **** Fit       0.004822
 **** Fit       0.004856
 **** Fit       0.003052
 **** Fit       0.003239
 **** Fit       0.003424
 **** Fit       0.003603
 **** Fit       0.003772
 **** Fit       0.003930
 **** Fit       0.004075
 **** Fit       0.004206
 **** Fit       0.004323
 **** Fit       0.004426
 **** Fit       0.004514
 **** Fit       0.004586
 **** Fit       0.004644
 **** Fit       0.004685
 **** Fit       0.004711
 **** Fit       0.004722
 **** Fit       0.004717
 **** Fit       0.002983
 **** Fit       0.003154
 **** Fit       0.003330
 **** Fit       0.003502
 **** Fit       0.003667
 **** Fit       0.003822
 **** Fit       0.003964
 **** Fit       0.004093
 **** Fit       0.004208
 **** Fit       0.004308
 **** Fit       0.004393
 **** Fit       0.004461
 **** Fit       0.004513
 **** Fit       0.004549
 **** Fit       0.004568
 **** Fit       0.004570
 **** Fit       0.004555
 **** Fit       0.004523
 **** Fit       0.003024
 **** Fit       0.003188
 **** Fit       0.003355
 **** Fit       0.003518
 **** Fit       0.003674
 **** Fit       0.003819
 **** Fit       0.003950
 **** Fit       0.004068
 **** Fit       0.004170
 **** Fit       0.004255
 **** Fit       0.004324
 **** Fit       0.004375
 **** Fit       0.004408
 **** Fit       0.004423
 **** Fit       0.004419
 **** Fit       0.004396
 **** Fit       0.004354
 **** Fit       0.004292
 **** Fit       0.004209
 **** Fit       0.002894
 **** Fit       0.003044
 **** Fit       0.003202
 **** Fit       0.003362
 **** Fit       0.003517
 **** Fit       0.003664
 **** Fit       0.003798
 **** Fit       0.003918
 **** Fit       0.004022
 **** Fit       0.004110
 **** Fit       0.004179
 **** Fit       0.004230
 **** Fit       0.004262
 **** Fit       0.004274
 **** Fit       0.004265
 **** Fit       0.004236
 **** Fit       0.004185
 **** Fit       0.004113
 **** Fit       0.004017
 **** Fit       0.003897
 **** Fit       0.003530
 **** Fit       0.002844
 **** Fit       0.002994
 **** Fit       0.003151
 **** Fit       0.003309
 **** Fit       0.003460
 **** Fit       0.003602
 **** Fit       0.003730
 **** Fit       0.003843
 **** Fit       0.003938
 **** Fit       0.004014
 **** Fit       0.004070
 **** Fit       0.004105
 **** Fit       0.004118
 **** Fit       0.004109
 **** Fit       0.004076
 **** Fit       0.004020
 **** Fit       0.003938
 **** Fit       0.003830
 **** Fit       0.003695
 **** Fit       0.003313
 **** Fit       0.003096
 **** Fit       0.002763
 **** Fit       0.002918
 **** Fit       0.003078
 **** Fit       0.003235
 **** Fit       0.003384
 **** Fit       0.003521
 **** Fit       0.003644
 **** Fit       0.003748
 **** Fit       0.003833
 **** Fit       0.003896
 **** Fit       0.003937
 **** Fit       0.003953
 **** Fit       0.003945
 **** Fit       0.003911
 **** Fit       0.003851
 **** Fit       0.003762
 **** Fit       0.003644
 **** Fit       0.003495
 **** Fit       0.003099
 **** Fit       0.002857
 **** Fit       0.002593
 **** Fit       0.002762
 **** Fit       0.002931
 **** Fit       0.003095
 **** Fit       0.003249
 **** Fit       0.003389
 **** Fit       0.003512
 **** Fit       0.003613
 **** Fit       0.003692
 **** Fit       0.003746
 **** Fit       0.003773
 **** Fit       0.003773
 **** Fit       0.003742
 **** Fit       0.003682
 **** Fit       0.003589
 **** Fit       0.003462
 **** Fit       0.003300
 **** Fit       0.002886
 **** Fit       0.002621
 **** Fit       0.002305
 **** Fit       0.002365
 **** Fit       0.002561
 **** Fit       0.002748
 **** Fit       0.002924
 **** Fit       0.003087
 **** Fit       0.003233
 **** Fit       0.003357
 **** Fit       0.003457
 **** Fit       0.003529
 **** Fit       0.003572
 **** Fit       0.003583
 **** Fit       0.003561
 **** Fit       0.003504
 **** Fit       0.003410
 **** Fit       0.003277
 **** Fit       0.003103
 **** Fit       0.002672
 **** Fit       0.002386
 **** Fit       0.002043
 **** Fit       0.001638
 **** Fit       0.002065
 **** Fit       0.002305
 **** Fit       0.002521
 **** Fit       0.002718
 **** Fit       0.002896
 **** Fit       0.003050
 **** Fit       0.003177
 **** Fit       0.003276
 **** Fit       0.003341
 **** Fit       0.003371
 **** Fit       0.003362
 **** Fit       0.003314
 **** Fit       0.003223
 **** Fit       0.003087
 **** Fit       0.002905
 **** Fit       0.002456
 **** Fit       0.002151
 **** Fit       0.001782
 **** Fit       0.001349
 **** Fit       0.001678
 **** Fit       0.001980
 **** Fit       0.002242
 **** Fit       0.002470
 **** Fit       0.002668
 **** Fit       0.002836
 **** Fit       0.002970
 **** Fit       0.003068
 **** Fit       0.003125
 **** Fit       0.003138
 **** Fit       0.003106
 **** Fit       0.003024
 **** Fit       0.002890
 **** Fit       0.002702
 **** Fit       0.002237
 **** Fit       0.001903
 **** Fit       0.001497
 **** Fit       0.001021
 **** Fit       0.000484
 **** Fit      -0.001190
 **** Fit      -0.000618
 **** Fit      -0.000029
 **** Fit       0.000525
 **** Fit       0.001015
 **** Fit       0.001434
 **** Fit       0.001788
 **** Fit       0.002086
 **** Fit       0.002337
 **** Fit       0.002543
 **** Fit       0.002703
 **** Fit       0.002815
 **** Fit       0.002873
 **** Fit       0.002875
 **** Fit       0.002815
 **** Fit       0.002691
 **** Fit       0.002499
 **** Fit       0.002015
 **** Fit       0.001650
 **** Fit       0.001203
 **** Fit       0.000688
 **** Fit       0.000136
 **** Fit      -0.000408
 **** Fit      -0.001186
 **** Fit      -0.000851
 **** Fit      -0.000374
 **** Fit       0.000165
 **** Fit       0.000694
 **** Fit       0.001170
 **** Fit       0.001576
 **** Fit       0.001913
 **** Fit       0.002184
 **** Fit       0.002390
 **** Fit       0.002527
 **** Fit       0.002591
 **** Fit       0.002576
 **** Fit       0.002477
 **** Fit       0.002291
 **** Fit       0.001788
 **** Fit       0.001389
 **** Fit       0.000901
 **** Fit       0.000373
 **** Fit      -0.000117
 **** Fit      -0.000470
 **** Fit      -0.000597
 **** Fit      -0.000461
 **** Fit      -0.000103
 **** Fit       0.000381
 **** Fit       0.000887
 **** Fit       0.001346
 **** Fit       0.001725
 **** Fit       0.002011
 **** Fit       0.002197
 **** Fit       0.002275
 **** Fit       0.002235
 **** Fit       0.002073
 **** Fit       0.001556
 **** Fit       0.001118
 **** Fit       0.000613
 **** Fit       0.000194
 **** Fit       0.000031
 **** Fit       0.000197
 **** Fit       0.000610
 **** Fit       0.001098
 **** Fit       0.001523
 **** Fit       0.001810
 **** Fit       0.001921
 **** Fit       0.001836
 **** Fit       0.001321
 **** Fit       0.000851
 **** Fit       0.000588
 **** Fit       0.000845
 **** Fit       0.001309
 **** Fit       0.001526
 **** Fit       0.001084
 **** Fit       0.001084
 **** Fit       0.001322
 **** Fit       0.000851
 **** Fit       0.000589
 **** Fit       0.000846
 **** Fit       0.001309
 **** Fit       0.001527
 **** Fit       0.001557
 **** Fit       0.001119
 **** Fit       0.000613
 **** Fit       0.000195
 **** Fit       0.000032
 **** Fit       0.000198
 **** Fit       0.000610
 **** Fit       0.001099
 **** Fit       0.001524
 **** Fit       0.001811
 **** Fit       0.001922
 **** Fit       0.001837
 **** Fit       0.001788
 **** Fit       0.001389
 **** Fit       0.000902
 **** Fit       0.000374
 **** Fit      -0.000116
 **** Fit      -0.000469
 **** Fit      -0.000596
 **** Fit      -0.000460
 **** Fit      -0.000102
 **** Fit       0.000381
 **** Fit       0.000888
 **** Fit       0.001347
 **** Fit       0.001726
 **** Fit       0.002012
 **** Fit       0.002198
 **** Fit       0.002275
 **** Fit       0.002236
 **** Fit       0.002074
 **** Fit       0.002015
 **** Fit       0.001651
 **** Fit       0.001203
 **** Fit       0.000689
 **** Fit       0.000136
 **** Fit      -0.000407
 **** Fit      -0.001185
 **** Fit      -0.000850
 **** Fit      -0.000373
 **** Fit       0.000166
 **** Fit       0.000694
 **** Fit       0.001170
 **** Fit       0.001577
 **** Fit       0.001914
 **** Fit       0.002185
 **** Fit       0.002390
 **** Fit       0.002527
 **** Fit       0.002591
 **** Fit       0.002576
 **** Fit       0.002478
 **** Fit       0.002291
 **** Fit       0.002238
 **** Fit       0.001904
 **** Fit       0.001497
 **** Fit       0.001022
 **** Fit       0.000485
 **** Fit      -0.001189
 **** Fit      -0.000617
 **** Fit      -0.000028
 **** Fit       0.000526
 **** Fit       0.001016
 **** Fit       0.001435
 **** Fit       0.001788
 **** Fit       0.002086
 **** Fit       0.002337
 **** Fit       0.002543
 **** Fit       0.002704
 **** Fit       0.002815
 **** Fit       0.002874
 **** Fit       0.002875
 **** Fit       0.002815
 **** Fit       0.002691
 **** Fit       0.002500
 **** Fit       0.002457
 **** Fit       0.002151
 **** Fit       0.001783
 **** Fit       0.001350
 **** Fit       0.001679
 **** Fit       0.001981
 **** Fit       0.002242
 **** Fit       0.002470
 **** Fit       0.002669
 **** Fit       0.002837
 **** Fit       0.002971
 **** Fit       0.003068
 **** Fit       0.003125
 **** Fit       0.003139
 **** Fit       0.003106
 **** Fit       0.003024
 **** Fit       0.002890
 **** Fit       0.002702
 **** Fit       0.002672
 **** Fit       0.002386
 **** Fit       0.002043
 **** Fit       0.001639
 **** Fit       0.002066
 **** Fit       0.002305
 **** Fit       0.002522
 **** Fit       0.002719
 **** Fit       0.002896
 **** Fit       0.003050
 **** Fit       0.003178
 **** Fit       0.003276
 **** Fit       0.003341
 **** Fit       0.003371
 **** Fit       0.003363
 **** Fit       0.003314
 **** Fit       0.003224
 **** Fit       0.003088
 **** Fit       0.002905
 **** Fit       0.002886
 **** Fit       0.002622
 **** Fit       0.002306
 **** Fit       0.002366
 **** Fit       0.002561
 **** Fit       0.002748
 **** Fit       0.002925
 **** Fit       0.003088
 **** Fit       0.003233
 **** Fit       0.003357
 **** Fit       0.003457
 **** Fit       0.003530
 **** Fit       0.003572
 **** Fit       0.003584
 **** Fit       0.003562
 **** Fit       0.003505
 **** Fit       0.003410
 **** Fit       0.003278
 **** Fit       0.003104
 **** Fit       0.003100
 **** Fit       0.002858
 **** Fit       0.002593
 **** Fit       0.002762
 **** Fit       0.002931
 **** Fit       0.003095
 **** Fit       0.003249
 **** Fit       0.003389
 **** Fit       0.003512
 **** Fit       0.003614
 **** Fit       0.003693
 **** Fit       0.003747
 **** Fit       0.003774
 **** Fit       0.003773
 **** Fit       0.003743
 **** Fit       0.003682
 **** Fit       0.003589
 **** Fit       0.003462
 **** Fit       0.003300
 **** Fit       0.003314
 **** Fit       0.003096
 **** Fit       0.002764
 **** Fit       0.002919
 **** Fit       0.003078
 **** Fit       0.003235
 **** Fit       0.003384
 **** Fit       0.003522
 **** Fit       0.003644
 **** Fit       0.003748
 **** Fit       0.003833
 **** Fit       0.003896
 **** Fit       0.003937
 **** Fit       0.003954
 **** Fit       0.003946
 **** Fit       0.003912
 **** Fit       0.003851
 **** Fit       0.003762
 **** Fit       0.003645
 **** Fit       0.003496
 **** Fit       0.003531
 **** Fit       0.002845
 **** Fit       0.002994
 **** Fit       0.003151
 **** Fit       0.003309
 **** Fit       0.003461
 **** Fit       0.003602
 **** Fit       0.003731
 **** Fit       0.003843
 **** Fit       0.003938
 **** Fit       0.004014
 **** Fit       0.004070
 **** Fit       0.004105
 **** Fit       0.004119
 **** Fit       0.004109
 **** Fit       0.004077
 **** Fit       0.004020
 **** Fit       0.003938
 **** Fit       0.003831
 **** Fit       0.003695
 **** Fit       0.002895
 **** Fit       0.003044
 **** Fit       0.003203
 **** Fit       0.003363
 **** Fit       0.003518
 **** Fit       0.003664
 **** Fit       0.003798
 **** Fit       0.003918
 **** Fit       0.004023
 **** Fit       0.004110
 **** Fit       0.004179
 **** Fit       0.004230
 **** Fit       0.004262
 **** Fit       0.004274
 **** Fit       0.004266
 **** Fit       0.004236
 **** Fit       0.004186
 **** Fit       0.004113
 **** Fit       0.004017
 **** Fit       0.003897
 **** Fit       0.003024
 **** Fit       0.003188
 **** Fit       0.003355
 **** Fit       0.003519
 **** Fit       0.003674
 **** Fit       0.003819
 **** Fit       0.003951
 **** Fit       0.004068
 **** Fit       0.004170
 **** Fit       0.004255
 **** Fit       0.004324
 **** Fit       0.004375
 **** Fit       0.004408
 **** Fit       0.004423
 **** Fit       0.004419
 **** Fit       0.004396
 **** Fit       0.004354
 **** Fit       0.004292
 **** Fit       0.004209
 **** Fit       0.002983
 **** Fit       0.003155
 **** Fit       0.003330
 **** Fit       0.003502
 **** Fit       0.003667
 **** Fit       0.003822
 **** Fit       0.003964
 **** Fit       0.004094
 **** Fit       0.004209
 **** Fit       0.004309
 **** Fit       0.004393
 **** Fit       0.004461
 **** Fit       0.004514
 **** Fit       0.004549
 **** Fit       0.004568
 **** Fit       0.004571
 **** Fit       0.004555
 **** Fit       0.004523
 **** Fit       0.003052
 **** Fit       0.003239
 **** Fit       0.003425
 **** Fit       0.003603
 **** Fit       0.003773
 **** Fit       0.003930
 **** Fit       0.004075
 **** Fit       0.004207
 **** Fit       0.004324
 **** Fit       0.004426
 **** Fit       0.004514
 **** Fit       0.004587
 **** Fit       0.004644
 **** Fit       0.004686
 **** Fit       0.004712
 **** Fit       0.004722
 **** Fit       0.004717
 **** Fit       0.002929
 **** Fit       0.003130
 **** Fit       0.003330
 **** Fit       0.003523
 **** Fit       0.003706
 **** Fit       0.003878
 **** Fit       0.004038
 **** Fit       0.004185
 **** Fit       0.004318
 **** Fit       0.004437
 **** Fit       0.004542
 **** Fit       0.004634
 **** Fit       0.004711
 **** Fit       0.004774
 **** Fit       0.004822
 **** Fit       0.004856
 **** Fit       0.003007
 **** Fit       0.003222
 **** Fit       0.003430
 **** Fit       0.003628
 **** Fit       0.003814
 **** Fit       0.003987
 **** Fit       0.004148
 **** Fit       0.004296
 **** Fit       0.004430
 **** Fit       0.004552
 **** Fit       0.004660
 **** Fit       0.004755
 **** Fit       0.004837
 **** Fit       0.004906
 **** Fit       0.003043
 **** Fit       0.003272
 **** Fit       0.003489
 **** Fit       0.003694
 **** Fit       0.003886
 **** Fit       0.004065
 **** Fit       0.004231
 **** Fit       0.004384
 **** Fit       0.004524
 **** Fit       0.004651
 **** Fit       0.004766
 **** Fit       0.004869
 **** Fit       0.003925
 **** Fit       0.004114
 **** Fit       0.004289
 **** Fit       0.004451
 -----------------------------------------------------------------
 Leave Link  602 at Tue Dec 13 15:00:32 2022, MaxMem=    67108864 cpu:         3.7

 Test job not archived.
 1\1\GINC-X1-CARBON\SP\RHF\6-311G(d)\C4H10O2\CADD\13-Dec-2022\0\\# HF/6
 -311G* SCF=Tight Pop=MK IOp(6/33=2,6/41=10,6/42=17) iop(6/50=1) geom=c
 onnectivity\\Title Card Required\\0,1\O,0,-1.74719695,0.51937546,0.000
 0137\C,0,-3.05005021,-0.11823605,-0.00005188\C,0,-0.63346941,-0.415571
 28,0.0000433\C,0,0.63346743,0.41556424,0.00005252\O,0,1.74719978,-0.51
 937863,0.0000227\C,0,3.05004829,0.11824494,-0.00005899\H,0,-3.78161581
 ,0.6850029,-0.00006653\H,0,-3.18585661,-0.73734069,0.89313369\H,0,-3.1
 8578437,-0.73730717,-0.89327148\H,0,-0.66899413,-1.05284318,-0.8897819
 1\H,0,-0.66902168,-1.05281975,0.88988262\H,0,0.66901809,1.05280571,0.8
 8989717\H,0,0.66899955,1.05283115,-0.88977161\H,0,3.78162165,-0.684986
 47,-0.00007586\H,0,3.18586736,0.73735008,0.89312811\H,0,3.18576674,0.7
 3732162,-0.89327515\\Version=ES64L-G09RevD.01\State=1-A\HF=-307.039329
 5\RMSD=7.220e-09\Dipole=-0.0000081,0.0000043,-0.0000443\Quadrupole=4.5
 207482,-3.010975,-1.5097732,3.6688783,-0.0000339,0.0000069\PG=C01 [X(C
 4H10O2)]\\@


 A COMPLEXITY IS MERELY A DISARRANGEMENT OF SIMPLICITIES.

                                    -- G. O. ABELL IN "EXPLORATION OF THE UNIVERSE"
 Job cpu time:       0 days  0 hours  0 minutes  8.0 seconds.
 File lengths (MBytes):  RWF=      9 Int=      0 D2E=      0 Chk=      2 Scr=      1
 Normal termination of Gaussian 09 at Tue Dec 13 15:00:32 2022.
