 Entering Gaussian System, Link 0=g09
 Input=13C.com
 Output=13C.log
 Initial command:
 /home/cadd//g09/l1.exe "/home/cadd/g09/scratch/Gau-19227.inp" -scrdir="/home/cadd/g09/scratch/"
 Entering Link 1 = /home/cadd//g09/l1.exe PID=     19229.
  
 Copyright (c) 1988,1990,1992,1993,1995,1998,2003,2009,2013,
            Gaussian, Inc.  All Rights Reserved.
  
 This is part of the Gaussian(R) 09 program.  It is based on
 the Gaussian(R) 03 system (copyright 2003, Gaussian, Inc.),
 the Gaussian(R) 98 system (copyright 1998, Gaussian, Inc.),
 the Gaussian(R) 94 system (copyright 1995, Gaussian, Inc.),
 the Gaussian 92(TM) system (copyright 1992, Gaussian, Inc.),
 the Gaussian 90(TM) system (copyright 1990, Gaussian, Inc.),
 the Gaussian 88(TM) system (copyright 1988, Gaussian, Inc.),
 the Gaussian 86(TM) system (copyright 1986, Carnegie Mellon
 University), and the Gaussian 82(TM) system (copyright 1983,
 Carnegie Mellon University). Gaussian is a federally registered
 trademark of Gaussian, Inc.
  
 This software contains proprietary and confidential information,
 including trade secrets, belonging to Gaussian, Inc.
  
 This software is provided under written license and may be
 used, copied, transmitted, or stored only in accord with that
 written license.
  
 The following legend is applicable only to US Government
 contracts under FAR:
  
                    RESTRICTED RIGHTS LEGEND
  
 Use, reproduction and disclosure by the US Government is
 subject to restrictions as set forth in subparagraphs (a)
 and (c) of the Commercial Computer Software - Restricted
 Rights clause in FAR 52.227-19.
  
 Gaussian, Inc.
 340 Quinnipiac St., Bldg. 40, Wallingford CT 06492
  
  
 ---------------------------------------------------------------
 Warning -- This program may not be used in any manner that
 competes with the business of Gaussian, Inc. or will provide
 assistance to any competitor of Gaussian, Inc.  The licensee
 of this program is prohibited from giving any competitor of
 Gaussian, Inc. access to this program.  By using this program,
 the user acknowledges that Gaussian, Inc. is engaged in the
 business of creating and licensing software in the field of
 computational chemistry and represents and warrants to the
 licensee that it is not a competitor of Gaussian, Inc. and that
 it will not use this program in any manner prohibited above.
 ---------------------------------------------------------------
  

 Cite this work as:
 Gaussian 09, Revision D.01,
 M. J. Frisch, G. W. Trucks, H. B. Schlegel, G. E. Scuseria, 
 M. A. Robb, J. R. Cheeseman, G. Scalmani, V. Barone, B. Mennucci, 
 G. A. Petersson, H. Nakatsuji, M. Caricato, X. Li, H. P. Hratchian, 
 A. F. Izmaylov, J. Bloino, G. Zheng, J. L. Sonnenberg, M. Hada, 
 M. Ehara, K. Toyota, R. Fukuda, J. Hasegawa, M. Ishida, T. Nakajima, 
 Y. Honda, O. Kitao, H. Nakai, T. Vreven, J. A. Montgomery, Jr., 
 J. E. Peralta, F. Ogliaro, M. Bearpark, J. J. Heyd, E. Brothers, 
 K. N. Kudin, V. N. Staroverov, T. Keith, R. Kobayashi, J. Normand, 
 K. Raghavachari, A. Rendell, J. C. Burant, S. S. Iyengar, J. Tomasi, 
 M. Cossi, N. Rega, J. M. Millam, M. Klene, J. E. Knox, J. B. Cross, 
 V. Bakken, C. Adamo, J. Jaramillo, R. Gomperts, R. E. Stratmann, 
 O. Yazyev, A. J. Austin, R. Cammi, C. Pomelli, J. W. Ochterski, 
 R. L. Martin, K. Morokuma, V. G. Zakrzewski, G. A. Voth, 
 P. Salvador, J. J. Dannenberg, S. Dapprich, A. D. Daniels, 
 O. Farkas, J. B. Foresman, J. V. Ortiz, J. Cioslowski, 
 and D. J. Fox, Gaussian, Inc., Wallingford CT, 2013.
 
 ******************************************
 Gaussian 09:  ES64L-G09RevD.01 24-Apr-2013
                13-Dec-2022 
 ******************************************
 %nprocshared=2
 Will use up to    2 processors via shared memory.
 %mem=512MB
 %chk=13C.chk
 --------------------------------------
 # opt b3lyp/6-311++g geom=connectivity
 --------------------------------------
 1/14=-1,18=20,19=15,26=3,38=1,57=2/1,3;
 2/9=110,12=2,17=6,18=5,40=1/2;
 3/5=4,6=6,7=1010,11=2,16=1,25=1,30=1,71=1,74=-5/1,2,3;
 4//1;
 5/5=2,38=5/2;
 6/7=2,8=2,9=2,10=2,28=1/1;
 7//1,2,3,16;
 1/14=-1,18=20,19=15,26=3/3(2);
 2/9=110/2;
 99//99;
 2/9=110/2;
 3/5=4,6=6,7=1010,11=2,16=1,25=1,30=1,71=1,74=-5/1,2,3;
 4/5=5,16=3,69=1/1;
 5/5=2,38=5/2;
 7//1,2,3,16;
 1/14=-1,18=20,19=15,26=3/3(-5);
 2/9=110/2;
 6/7=2,8=2,9=2,10=2,19=2,28=1/1;
 99/9=1/99;
 -------
 opt 13c
 -------
 Symbolic Z-matrix:
 Charge =  0 Multiplicity = 1
 O(PDBName=O1)         5.61      1.115     0.193 
 O(PDBName=O2)         5.949     2.101    -1.789 
 C(PDBName=C1)        -2.126     1.916     0.174 
 C(PDBName=C2)        -3.388     2.744     0.287 
 C(PDBName=C3)        -0.891     2.792     0.17 
 C(PDBName=C4)        -4.623     1.87      0.232 
 C(PDBName=C5)         0.364     1.961     0.011 
 C(PDBName=C6)        -5.888     2.695     0.328 
 C(PDBName=C7)         1.6       2.833    -0.052 
 C(PDBName=C8)        -7.119     1.821     0.229 
 C(PDBName=C9)         2.832     1.995    -0.32 
 C(PDBName=C10)       -8.388     2.642     0.323 
 C(PDBName=C11)        4.077     2.857    -0.383 
 C(PDBName=C12)       -9.617     1.767     0.195 
 C(PDBName=C13)        5.27      2.035    -0.764 
 C(PDBName=C14)        6.625     0.151    -0.131 
 C(PDBName=C15)       -10.886    2.572     0.295 
 C(PDBName=C16)        6.346    -1.068     0.75 
 C(PDBName=C17)        7.993     0.756     0.195 
 H(PDBName=H1)        -2.072     1.191     1.03 
 H(PDBName=H2)        -2.159     1.308    -0.768 
 H(PDBName=H3)        -3.376     3.32      1.25 
 H(PDBName=H4)        -3.422     3.495    -0.546 
 H(PDBName=H5)        -0.96      3.534    -0.669 
 H(PDBName=H6)        -0.839     3.376     1.126 
 H(PDBName=H7)        -4.627     1.285    -0.726 
 H(PDBName=H8)        -4.594     1.124     1.07 
 H(PDBName=H9)         0.453     1.243     0.87 
 H(PDBName=H10)        0.29      1.345    -0.925 
 H(PDBName=H11)       -5.9       3.255     1.301 
 H(PDBName=H12)       -5.902     3.46     -0.493 
 H(PDBName=H13)        1.481     3.599    -0.863 
 H(PDBName=H14)        1.721     3.388     0.915 
 H(PDBName=H15)       -7.105     1.261    -0.744 
 H(PDBName=H16)       -7.105     1.055     1.049 
 H(PDBName=H17)        2.956     1.226     0.489 
 H(PDBName=H18)        2.707     1.444    -1.29 
 H(PDBName=H19)       -8.413     3.185     1.305 
 H(PDBName=H20)       -8.395     3.42     -0.485 
 H(PDBName=H21)        3.957     3.67     -1.147 
 H(PDBName=H22)        4.267     3.331     0.616 
 H(PDBName=H23)       -9.589     1.227    -0.79 
 H(PDBName=H24)       -9.603     0.983     0.998 
 H(PDBName=H25)        6.568    -0.121    -1.22 
 H(PDBName=H26)       -11.776    1.905     0.195 
 H(PDBName=H27)       -10.929    3.343    -0.513 
 H(PDBName=H28)       -10.945    3.095     1.28 
 H(PDBName=H29)        6.207    -0.768     1.82 
 H(PDBName=H30)        8.073     1.001     1.287 
 H(PDBName=H31)        8.142     1.687    -0.414 
 H(PDBName=H32)        5.44     -1.562     0.398 
 H(PDBName=H33)        7.187    -1.758     0.68 
 H(PDBName=H34)        8.769     0.036    -0.064 
 

 GradGradGradGradGradGradGradGradGradGradGradGradGradGradGradGradGradGrad
 Berny optimization.
 Initialization pass.
                           ----------------------------
                           !    Initial Parameters    !
                           ! (Angstroms and Degrees)  !
 --------------------------                            --------------------------
 ! Name  Definition              Value          Derivative Info.                !
 --------------------------------------------------------------------------------
 ! R1    R(1,15)                 1.3703         estimate D2E/DX2                !
 ! R2    R(1,16)                 1.4368         estimate D2E/DX2                !
 ! R3    R(2,15)                 1.2313         estimate D2E/DX2                !
 ! R4    R(3,4)                  1.5136         estimate D2E/DX2                !
 ! R5    R(3,5)                  1.5141         estimate D2E/DX2                !
 ! R6    R(3,20)                 1.1231         estimate D2E/DX2                !
 ! R7    R(3,21)                 1.1217         estimate D2E/DX2                !
 ! R8    R(4,6)                  1.514          estimate D2E/DX2                !
 ! R9    R(4,22)                 1.1222         estimate D2E/DX2                !
 ! R10   R(4,23)                 1.1221         estimate D2E/DX2                !
 ! R11   R(5,7)                  1.5136         estimate D2E/DX2                !
 ! R12   R(5,24)                 1.1222         estimate D2E/DX2                !
 ! R13   R(5,25)                 1.1215         estimate D2E/DX2                !
 ! R14   R(6,8)                  1.5133         estimate D2E/DX2                !
 ! R15   R(6,26)                 1.1225         estimate D2E/DX2                !
 ! R16   R(6,27)                 1.1223         estimate D2E/DX2                !
 ! R17   R(7,9)                  1.514          estimate D2E/DX2                !
 ! R18   R(7,28)                 1.1231         estimate D2E/DX2                !
 ! R19   R(7,29)                 1.123          estimate D2E/DX2                !
 ! R20   R(8,10)                 1.513          estimate D2E/DX2                !
 ! R21   R(8,30)                 1.1227         estimate D2E/DX2                !
 ! R22   R(8,31)                 1.1223         estimate D2E/DX2                !
 ! R23   R(9,11)                 1.5139         estimate D2E/DX2                !
 ! R24   R(9,32)                 1.1219         estimate D2E/DX2                !
 ! R25   R(9,33)                 1.1215         estimate D2E/DX2                !
 ! R26   R(10,12)                1.5143         estimate D2E/DX2                !
 ! R27   R(10,34)                1.1227         estimate D2E/DX2                !
 ! R28   R(10,35)                1.1222         estimate D2E/DX2                !
 ! R29   R(11,13)                1.5156         estimate D2E/DX2                !
 ! R30   R(11,36)                1.123          estimate D2E/DX2                !
 ! R31   R(11,37)                1.1226         estimate D2E/DX2                !
 ! R32   R(12,14)                1.5141         estimate D2E/DX2                !
 ! R33   R(12,38)                1.1224         estimate D2E/DX2                !
 ! R34   R(12,39)                1.1217         estimate D2E/DX2                !
 ! R35   R(13,15)                1.498          estimate D2E/DX2                !
 ! R36   R(13,40)                1.1221         estimate D2E/DX2                !
 ! R37   R(13,41)                1.122          estimate D2E/DX2                !
 ! R38   R(14,17)                1.5061         estimate D2E/DX2                !
 ! R39   R(14,42)                1.1237         estimate D2E/DX2                !
 ! R40   R(14,43)                1.1223         estimate D2E/DX2                !
 ! R41   R(16,18)                1.5297         estimate D2E/DX2                !
 ! R42   R(16,19)                1.5309         estimate D2E/DX2                !
 ! R43   R(16,44)                1.1239         estimate D2E/DX2                !
 ! R44   R(17,45)                1.1167         estimate D2E/DX2                !
 ! R45   R(17,46)                1.1177         estimate D2E/DX2                !
 ! R46   R(17,47)                1.1168         estimate D2E/DX2                !
 ! R47   R(18,48)                1.1199         estimate D2E/DX2                !
 ! R48   R(18,51)                1.0903         estimate D2E/DX2                !
 ! R49   R(18,52)                1.0901         estimate D2E/DX2                !
 ! R50   R(19,49)                1.122          estimate D2E/DX2                !
 ! R51   R(19,50)                1.1224         estimate D2E/DX2                !
 ! R52   R(19,53)                1.0898         estimate D2E/DX2                !
 ! A1    A(15,1,16)            117.919          estimate D2E/DX2                !
 ! A2    A(4,3,5)              111.332          estimate D2E/DX2                !
 ! A3    A(4,3,20)             109.6534         estimate D2E/DX2                !
 ! A4    A(4,3,21)             109.5539         estimate D2E/DX2                !
 ! A5    A(5,3,20)             109.6503         estimate D2E/DX2                !
 ! A6    A(5,3,21)             109.5958         estimate D2E/DX2                !
 ! A7    A(20,3,21)            106.9541         estimate D2E/DX2                !
 ! A8    A(3,4,6)              111.1999         estimate D2E/DX2                !
 ! A9    A(3,4,22)             109.6296         estimate D2E/DX2                !
 ! A10   A(3,4,23)             109.6317         estimate D2E/DX2                !
 ! A11   A(6,4,22)             109.6463         estimate D2E/DX2                !
 ! A12   A(6,4,23)             109.5537         estimate D2E/DX2                !
 ! A13   A(22,4,23)            107.0888         estimate D2E/DX2                !
 ! A14   A(3,5,7)              111.0353         estimate D2E/DX2                !
 ! A15   A(3,5,24)             109.5343         estimate D2E/DX2                !
 ! A16   A(3,5,25)             109.6846         estimate D2E/DX2                !
 ! A17   A(7,5,24)             109.6016         estimate D2E/DX2                !
 ! A18   A(7,5,25)             109.6949         estimate D2E/DX2                !
 ! A19   A(24,5,25)            107.2097         estimate D2E/DX2                !
 ! A20   A(4,6,8)              111.3994         estimate D2E/DX2                !
 ! A21   A(4,6,26)             109.5585         estimate D2E/DX2                !
 ! A22   A(4,6,27)             109.604          estimate D2E/DX2                !
 ! A23   A(8,6,26)             109.5896         estimate D2E/DX2                !
 ! A24   A(8,6,27)             109.67           estimate D2E/DX2                !
 ! A25   A(26,6,27)            106.9134         estimate D2E/DX2                !
 ! A26   A(5,7,9)              111.4125         estimate D2E/DX2                !
 ! A27   A(5,7,28)             109.6555         estimate D2E/DX2                !
 ! A28   A(5,7,29)             109.5176         estimate D2E/DX2                !
 ! A29   A(9,7,28)             109.5943         estimate D2E/DX2                !
 ! A30   A(9,7,29)             109.5766         estimate D2E/DX2                !
 ! A31   A(28,7,29)            106.9805         estimate D2E/DX2                !
 ! A32   A(6,8,10)             111.1652         estimate D2E/DX2                !
 ! A33   A(6,8,30)             109.6236         estimate D2E/DX2                !
 ! A34   A(6,8,31)             109.6114         estimate D2E/DX2                !
 ! A35   A(10,8,30)            109.6428         estimate D2E/DX2                !
 ! A36   A(10,8,31)            109.6188         estimate D2E/DX2                !
 ! A37   A(30,8,31)            107.0897         estimate D2E/DX2                !
 ! A38   A(7,9,11)             110.6665         estimate D2E/DX2                !
 ! A39   A(7,9,32)             109.6788         estimate D2E/DX2                !
 ! A40   A(7,9,33)             109.7087         estimate D2E/DX2                !
 ! A41   A(11,9,32)            109.6511         estimate D2E/DX2                !
 ! A42   A(11,9,33)            109.8019         estimate D2E/DX2                !
 ! A43   A(32,9,33)            107.269          estimate D2E/DX2                !
 ! A44   A(8,10,12)            111.3811         estimate D2E/DX2                !
 ! A45   A(8,10,34)            109.5542         estimate D2E/DX2                !
 ! A46   A(8,10,35)            109.6546         estimate D2E/DX2                !
 ! A47   A(12,10,34)           109.5518         estimate D2E/DX2                !
 ! A48   A(12,10,35)           109.5822         estimate D2E/DX2                !
 ! A49   A(34,10,35)           107.0159         estimate D2E/DX2                !
 ! A50   A(9,11,13)            111.1634         estimate D2E/DX2                !
 ! A51   A(9,11,36)            109.96           estimate D2E/DX2                !
 ! A52   A(9,11,37)            109.5149         estimate D2E/DX2                !
 ! A53   A(13,11,36)           109.1896         estimate D2E/DX2                !
 ! A54   A(13,11,37)           109.5557         estimate D2E/DX2                !
 ! A55   A(36,11,37)           107.3771         estimate D2E/DX2                !
 ! A56   A(10,12,14)           111.2012         estimate D2E/DX2                !
 ! A57   A(10,12,38)           109.588          estimate D2E/DX2                !
 ! A58   A(10,12,39)           109.6666         estimate D2E/DX2                !
 ! A59   A(14,12,38)           109.6008         estimate D2E/DX2                !
 ! A60   A(14,12,39)           109.5646         estimate D2E/DX2                !
 ! A61   A(38,12,39)           107.13           estimate D2E/DX2                !
 ! A62   A(11,13,15)           110.6512         estimate D2E/DX2                !
 ! A63   A(11,13,40)           110.6428         estimate D2E/DX2                !
 ! A64   A(11,13,41)           110.0222         estimate D2E/DX2                !
 ! A65   A(15,13,40)           108.0334         estimate D2E/DX2                !
 ! A66   A(15,13,41)           108.8698         estimate D2E/DX2                !
 ! A67   A(40,13,41)           108.5582         estimate D2E/DX2                !
 ! A68   A(12,14,17)           111.68           estimate D2E/DX2                !
 ! A69   A(12,14,42)           109.3664         estimate D2E/DX2                !
 ! A70   A(12,14,43)           109.4558         estimate D2E/DX2                !
 ! A71   A(17,14,42)           109.6369         estimate D2E/DX2                !
 ! A72   A(17,14,43)           109.6556         estimate D2E/DX2                !
 ! A73   A(42,14,43)           106.9279         estimate D2E/DX2                !
 ! A74   A(1,15,2)             118.7202         estimate D2E/DX2                !
 ! A75   A(1,15,13)            112.8528         estimate D2E/DX2                !
 ! A76   A(2,15,13)            128.4249         estimate D2E/DX2                !
 ! A77   A(1,16,18)            106.0179         estimate D2E/DX2                !
 ! A78   A(1,16,19)            108.5469         estimate D2E/DX2                !
 ! A79   A(1,16,44)            110.1841         estimate D2E/DX2                !
 ! A80   A(18,16,19)           110.8093         estimate D2E/DX2                !
 ! A81   A(18,16,44)           110.851          estimate D2E/DX2                !
 ! A82   A(19,16,44)           110.3217         estimate D2E/DX2                !
 ! A83   A(14,17,45)           110.2629         estimate D2E/DX2                !
 ! A84   A(14,17,46)           110.6786         estimate D2E/DX2                !
 ! A85   A(14,17,47)           110.6939         estimate D2E/DX2                !
 ! A86   A(45,17,46)           108.4597         estimate D2E/DX2                !
 ! A87   A(45,17,47)           108.4572         estimate D2E/DX2                !
 ! A88   A(46,17,47)           108.2123         estimate D2E/DX2                !
 ! A89   A(16,18,48)           111.0652         estimate D2E/DX2                !
 ! A90   A(16,18,51)           109.0673         estimate D2E/DX2                !
 ! A91   A(16,18,52)           109.0697         estimate D2E/DX2                !
 ! A92   A(48,18,51)           109.0679         estimate D2E/DX2                !
 ! A93   A(48,18,52)           109.0667         estimate D2E/DX2                !
 ! A94   A(51,18,52)           109.485          estimate D2E/DX2                !
 ! A95   A(16,19,49)           110.9317         estimate D2E/DX2                !
 ! A96   A(16,19,50)           109.3217         estimate D2E/DX2                !
 ! A97   A(16,19,53)           108.9404         estimate D2E/DX2                !
 ! A98   A(49,19,50)           109.7235         estimate D2E/DX2                !
 ! A99   A(49,19,53)           108.9533         estimate D2E/DX2                !
 ! A100  A(50,19,53)           108.9368         estimate D2E/DX2                !
 ! D1    D(16,1,15,2)           -8.5406         estimate D2E/DX2                !
 ! D2    D(16,1,15,13)         171.9506         estimate D2E/DX2                !
 ! D3    D(15,1,16,18)        -153.9094         estimate D2E/DX2                !
 ! D4    D(15,1,16,19)          87.0012         estimate D2E/DX2                !
 ! D5    D(15,1,16,44)         -33.9041         estimate D2E/DX2                !
 ! D6    D(5,3,4,6)            177.6068         estimate D2E/DX2                !
 ! D7    D(5,3,4,22)           -60.9798         estimate D2E/DX2                !
 ! D8    D(5,3,4,23)            56.3083         estimate D2E/DX2                !
 ! D9    D(20,3,4,6)           -60.8719         estimate D2E/DX2                !
 ! D10   D(20,3,4,22)           60.5415         estimate D2E/DX2                !
 ! D11   D(20,3,4,23)          177.8295         estimate D2E/DX2                !
 ! D12   D(21,3,4,6)            56.2214         estimate D2E/DX2                !
 ! D13   D(21,3,4,22)          177.6348         estimate D2E/DX2                !
 ! D14   D(21,3,4,23)          -65.0771         estimate D2E/DX2                !
 ! D15   D(4,3,5,7)           -178.1339         estimate D2E/DX2                !
 ! D16   D(4,3,5,24)           -56.9474         estimate D2E/DX2                !
 ! D17   D(4,3,5,25)            60.4624         estimate D2E/DX2                !
 ! D18   D(20,3,5,7)            60.343          estimate D2E/DX2                !
 ! D19   D(20,3,5,24)         -178.4705         estimate D2E/DX2                !
 ! D20   D(20,3,5,25)          -61.0607         estimate D2E/DX2                !
 ! D21   D(21,3,5,7)           -56.773          estimate D2E/DX2                !
 ! D22   D(21,3,5,24)           64.4135         estimate D2E/DX2                !
 ! D23   D(21,3,5,25)         -178.1766         estimate D2E/DX2                !
 ! D24   D(3,4,6,8)           -179.3211         estimate D2E/DX2                !
 ! D25   D(3,4,6,26)           -57.8962         estimate D2E/DX2                !
 ! D26   D(3,4,6,27)            59.1219         estimate D2E/DX2                !
 ! D27   D(22,4,6,8)            59.2753         estimate D2E/DX2                !
 ! D28   D(22,4,6,26)         -179.2998         estimate D2E/DX2                !
 ! D29   D(22,4,6,27)          -62.2817         estimate D2E/DX2                !
 ! D30   D(23,4,6,8)           -57.9769         estimate D2E/DX2                !
 ! D31   D(23,4,6,26)           63.448          estimate D2E/DX2                !
 ! D32   D(23,4,6,27)         -179.5339         estimate D2E/DX2                !
 ! D33   D(3,5,7,9)            177.6331         estimate D2E/DX2                !
 ! D34   D(3,5,7,28)           -60.8617         estimate D2E/DX2                !
 ! D35   D(3,5,7,29)            56.2436         estimate D2E/DX2                !
 ! D36   D(24,5,7,9)            56.4862         estimate D2E/DX2                !
 ! D37   D(24,5,7,28)          177.9913         estimate D2E/DX2                !
 ! D38   D(24,5,7,29)          -64.9033         estimate D2E/DX2                !
 ! D39   D(25,5,7,9)           -60.9692         estimate D2E/DX2                !
 ! D40   D(25,5,7,28)           60.5359         estimate D2E/DX2                !
 ! D41   D(25,5,7,29)          177.6413         estimate D2E/DX2                !
 ! D42   D(4,6,8,10)           178.2231         estimate D2E/DX2                !
 ! D43   D(4,6,8,30)           -60.3947         estimate D2E/DX2                !
 ! D44   D(4,6,8,31)            56.8791         estimate D2E/DX2                !
 ! D45   D(26,6,8,10)           56.8163         estimate D2E/DX2                !
 ! D46   D(26,6,8,30)          178.1985         estimate D2E/DX2                !
 ! D47   D(26,6,8,31)          -64.5277         estimate D2E/DX2                !
 ! D48   D(27,6,8,10)          -60.2583         estimate D2E/DX2                !
 ! D49   D(27,6,8,30)           61.1239         estimate D2E/DX2                !
 ! D50   D(27,6,8,31)          178.3977         estimate D2E/DX2                !
 ! D51   D(5,7,9,11)          -175.5432         estimate D2E/DX2                !
 ! D52   D(5,7,9,32)           -54.4378         estimate D2E/DX2                !
 ! D53   D(5,7,9,33)            63.1432         estimate D2E/DX2                !
 ! D54   D(28,7,9,11)           62.916          estimate D2E/DX2                !
 ! D55   D(28,7,9,32)         -175.9785         estimate D2E/DX2                !
 ! D56   D(28,7,9,33)          -58.3975         estimate D2E/DX2                !
 ! D57   D(29,7,9,11)          -54.1881         estimate D2E/DX2                !
 ! D58   D(29,7,9,32)           66.9173         estimate D2E/DX2                !
 ! D59   D(29,7,9,33)         -175.5016         estimate D2E/DX2                !
 ! D60   D(6,8,10,12)         -179.9376         estimate D2E/DX2                !
 ! D61   D(6,8,10,34)          -58.5752         estimate D2E/DX2                !
 ! D62   D(6,8,10,35)           58.5938         estimate D2E/DX2                !
 ! D63   D(30,8,10,12)          58.6914         estimate D2E/DX2                !
 ! D64   D(30,8,10,34)        -179.9462         estimate D2E/DX2                !
 ! D65   D(30,8,10,35)         -62.7772         estimate D2E/DX2                !
 ! D66   D(31,8,10,12)         -58.598          estimate D2E/DX2                !
 ! D67   D(31,8,10,34)          62.7645         estimate D2E/DX2                !
 ! D68   D(31,8,10,35)         179.9335         estimate D2E/DX2                !
 ! D69   D(7,9,11,13)         -179.9033         estimate D2E/DX2                !
 ! D70   D(7,9,11,36)          -58.8661         estimate D2E/DX2                !
 ! D71   D(7,9,11,37)           58.8976         estimate D2E/DX2                !
 ! D72   D(32,9,11,13)          58.9749         estimate D2E/DX2                !
 ! D73   D(32,9,11,36)        -179.9879         estimate D2E/DX2                !
 ! D74   D(32,9,11,37)         -62.2242         estimate D2E/DX2                !
 ! D75   D(33,9,11,13)         -58.6449         estimate D2E/DX2                !
 ! D76   D(33,9,11,36)          62.3924         estimate D2E/DX2                !
 ! D77   D(33,9,11,37)        -179.8439         estimate D2E/DX2                !
 ! D78   D(8,10,12,14)         178.835          estimate D2E/DX2                !
 ! D79   D(8,10,12,38)         -59.8357         estimate D2E/DX2                !
 ! D80   D(8,10,12,39)          57.4985         estimate D2E/DX2                !
 ! D81   D(34,10,12,14)         57.4712         estimate D2E/DX2                !
 ! D82   D(34,10,12,38)        178.8004         estimate D2E/DX2                !
 ! D83   D(34,10,12,39)        -63.8654         estimate D2E/DX2                !
 ! D84   D(35,10,12,14)        -59.6543         estimate D2E/DX2                !
 ! D85   D(35,10,12,38)         61.6749         estimate D2E/DX2                !
 ! D86   D(35,10,12,39)        179.0091         estimate D2E/DX2                !
 ! D87   D(9,11,13,15)        -175.1601         estimate D2E/DX2                !
 ! D88   D(9,11,13,40)         -55.4565         estimate D2E/DX2                !
 ! D89   D(9,11,13,41)          64.4949         estimate D2E/DX2                !
 ! D90   D(36,11,13,15)         63.3514         estimate D2E/DX2                !
 ! D91   D(36,11,13,40)       -176.945          estimate D2E/DX2                !
 ! D92   D(36,11,13,41)        -56.9936         estimate D2E/DX2                !
 ! D93   D(37,11,13,15)        -53.985          estimate D2E/DX2                !
 ! D94   D(37,11,13,40)         65.7186         estimate D2E/DX2                !
 ! D95   D(37,11,13,41)       -174.33           estimate D2E/DX2                !
 ! D96   D(10,12,14,17)        179.6713         estimate D2E/DX2                !
 ! D97   D(10,12,14,42)        -58.7906         estimate D2E/DX2                !
 ! D98   D(10,12,14,43)         58.0486         estimate D2E/DX2                !
 ! D99   D(38,12,14,17)         58.3495         estimate D2E/DX2                !
 ! D100  D(38,12,14,42)        179.8876         estimate D2E/DX2                !
 ! D101  D(38,12,14,43)        -63.2732         estimate D2E/DX2                !
 ! D102  D(39,12,14,17)        -58.9325         estimate D2E/DX2                !
 ! D103  D(39,12,14,42)         62.6056         estimate D2E/DX2                !
 ! D104  D(39,12,14,43)        179.4448         estimate D2E/DX2                !
 ! D105  D(11,13,15,1)         -66.4867         estimate D2E/DX2                !
 ! D106  D(11,13,15,2)         114.0631         estimate D2E/DX2                !
 ! D107  D(40,13,15,1)         172.2538         estimate D2E/DX2                !
 ! D108  D(40,13,15,2)          -7.1964         estimate D2E/DX2                !
 ! D109  D(41,13,15,1)          54.5439         estimate D2E/DX2                !
 ! D110  D(41,13,15,2)        -124.9063         estimate D2E/DX2                !
 ! D111  D(12,14,17,45)        179.8497         estimate D2E/DX2                !
 ! D112  D(12,14,17,46)         59.8424         estimate D2E/DX2                !
 ! D113  D(12,14,17,47)        -60.1363         estimate D2E/DX2                !
 ! D114  D(42,14,17,45)         58.4682         estimate D2E/DX2                !
 ! D115  D(42,14,17,46)        -61.5391         estimate D2E/DX2                !
 ! D116  D(42,14,17,47)        178.4822         estimate D2E/DX2                !
 ! D117  D(43,14,17,45)        -58.6432         estimate D2E/DX2                !
 ! D118  D(43,14,17,46)       -178.6505         estimate D2E/DX2                !
 ! D119  D(43,14,17,47)         61.3709         estimate D2E/DX2                !
 ! D120  D(1,16,18,48)         -49.5414         estimate D2E/DX2                !
 ! D121  D(1,16,18,51)          70.6928         estimate D2E/DX2                !
 ! D122  D(1,16,18,52)        -169.7758         estimate D2E/DX2                !
 ! D123  D(19,16,18,48)         68.0477         estimate D2E/DX2                !
 ! D124  D(19,16,18,51)       -171.7181         estimate D2E/DX2                !
 ! D125  D(19,16,18,52)        -52.1866         estimate D2E/DX2                !
 ! D126  D(44,16,18,48)       -169.1108         estimate D2E/DX2                !
 ! D127  D(44,16,18,51)        -48.8765         estimate D2E/DX2                !
 ! D128  D(44,16,18,52)         70.6549         estimate D2E/DX2                !
 ! D129  D(1,16,19,49)          61.0047         estimate D2E/DX2                !
 ! D130  D(1,16,19,50)         -60.1269         estimate D2E/DX2                !
 ! D131  D(1,16,19,53)        -179.0673         estimate D2E/DX2                !
 ! D132  D(18,16,19,49)        -55.0273         estimate D2E/DX2                !
 ! D133  D(18,16,19,50)       -176.1589         estimate D2E/DX2                !
 ! D134  D(18,16,19,53)         64.9007         estimate D2E/DX2                !
 ! D135  D(44,16,19,49)       -178.175          estimate D2E/DX2                !
 ! D136  D(44,16,19,50)         60.6934         estimate D2E/DX2                !
 ! D137  D(44,16,19,53)        -58.247          estimate D2E/DX2                !
 --------------------------------------------------------------------------------
 Trust Radius=3.00D-01 FncErr=1.00D-07 GrdErr=1.00D-06
 Number of steps in this run=    299 maximum allowed number of steps=    318.
 GradGradGradGradGradGradGradGradGradGradGradGradGradGradGradGradGradGrad

 Stoichiometry    C17H34O2
 Framework group  C1[X(C17H34O2)]
 Deg. of freedom   153
 Full point group                 C1      NOp   1
 Largest Abelian subgroup         C1      NOp   1
 Largest concise Abelian subgroup C1      NOp   1
                         Standard orientation:                         
 ---------------------------------------------------------------------
 Center     Atomic      Atomic             Coordinates (Angstroms)
 Number     Number       Type             X           Y           Z
 ---------------------------------------------------------------------
      1          8           0        6.063635    0.320319   -0.284107
      2          8           0        6.378826   -1.301678    1.227587
      3          6           0       -1.708099    0.121973   -0.063956
      4          6           0       -3.041550   -0.524962   -0.371169
      5          6           0       -0.556142   -0.790227   -0.429337
      6          6           0       -4.191746    0.365336    0.049004
      7          6           0        0.772117   -0.155587   -0.077449
      8          6           0       -5.527360   -0.284339   -0.241039
      9          6           0        1.927362   -1.084136   -0.386085
     10          6           0       -6.672128    0.590734    0.220253
     11          6           0        3.236925   -0.478267    0.072018
     12          6           0       -8.011304   -0.055579   -0.066323
     13          6           0        4.402016   -1.398087   -0.233811
     14          6           0       -9.153040    0.810443    0.422443
     15          6           0        5.675047   -0.842761    0.327524
     16          6           0        7.170178    1.041037    0.282131
     17          6           0      -10.490994    0.181172    0.135595
     18          6           0        6.971535    2.503489   -0.120035
     19          6           0        8.467719    0.485392   -0.310633
     20          1           0       -1.618197    1.088568   -0.628659
     21          1           0       -1.656119    0.374815    1.027596
     22          1           0       -3.112290   -0.739146   -1.470446
     23          1           0       -3.114602   -1.509580    0.161970
     24          1           0       -0.663042   -1.765911    0.114594
     25          1           0       -0.587541   -1.017182   -1.527154
     26          1           0       -4.112409    0.589079    1.146113
     27          1           0       -4.124280    1.347323   -0.490209
     28          1           0        0.896143    0.802931   -0.649452
     29          1           0        0.783793    0.109758    1.013644
     30          1           0       -5.620903   -0.478388   -1.342886
     31          1           0       -5.582136   -1.279459    0.274905
     32          1           0        1.767639   -2.069208    0.126515
     33          1           0        1.966864   -1.285148   -1.488713
     34          1           0       -6.576595    0.784638    1.321979
     35          1           0       -6.617231    1.586453   -0.294414
     36          1           0        3.401957    0.508579   -0.438001
     37          1           0        3.193185   -0.281735    1.176367
     38          1           0       -8.116577   -0.229690   -1.170136
     39          1           0       -8.060690   -1.058985    0.432611
     40          1           0        4.235588   -2.411212    0.218897
     41          1           0        4.516337   -1.517261   -1.343543
     42          1           0       -9.044947    0.980505    1.527886
     43          1           0       -9.095989    1.817273   -0.070203
     44          1           0        7.173313    0.930600    1.400589
     45          1           0      -11.314605    0.837118    0.507605
     46          1           0      -10.575599   -0.813066    0.639070
     47          1           0      -10.628441    0.029295   -0.962256
     48          1           0        6.771420    2.595388   -1.218093
     49          1           0        8.489776    0.620506   -1.424251
     50          1           0        8.553536   -0.605234   -0.059607
     51          1           0        6.124940    2.912805    0.431792
     52          1           0        7.872228    3.066036    0.126085
     53          1           0        9.312570    1.016619    0.127182
 ---------------------------------------------------------------------
 Rotational constants (GHZ):      1.5372570      0.0511341      0.0501636
 Standard basis: 6-311++G (5D, 7F)
 There are   459 symmetry adapted cartesian basis functions of A   symmetry.
 There are   459 symmetry adapted basis functions of A   symmetry.
   459 basis functions,   774 primitive gaussians,   459 cartesian basis functions
    76 alpha electrons       76 beta electrons
       nuclear repulsion energy      1330.9577106021 Hartrees.
 NAtoms=   53 NActive=   53 NUniq=   53 SFac= 1.00D+00 NAtFMM=   60 NAOKFM=F Big=F
 Integral buffers will be    131072 words long.
 Raffenetti 2 integral format.
 Two-electron integral symmetry is turned on.
 One-electron integrals computed using PRISM.
 NBasis=   459 RedAO= T EigKep=  1.89D-06  NBF=   459
 NBsUse=   458 1.00D-06 EigRej=  3.99D-07 NBFU=   458
 ExpMin= 3.60D-02 ExpMax= 8.59D+03 ExpMxC= 1.30D+03 IAcc=3 IRadAn=         5 AccDes= 0.00D+00
 Harris functional with IExCor=  402 and IRadAn=       5 diagonalized for initial guess.
 HarFok:  IExCor=  402 AccDes= 0.00D+00 IRadAn=         5 IDoV= 1 UseB2=F ITyADJ=14
 ICtDFT=  3500011 ScaDFX=  1.000000  1.000000  1.000000  1.000000
 FoFCou: FMM=F IPFlag=           0 FMFlag=      100000 FMFlg1=           0
         NFxFlg=           0 DoJE=T BraDBF=F KetDBF=T FulRan=T
         wScrn=  0.000000 ICntrl=     500 IOpCl=  0 I1Cent=   200000004 NGrid=           0
         NMat0=    1 NMatS0=      1 NMatT0=    0 NMatD0=    1 NMtDS0=    0 NMtDT0=    0
 Petite list used in FoFCou.
 Requested convergence on RMS density matrix=1.00D-08 within 128 cycles.
 Requested convergence on MAX density matrix=1.00D-06.
 Requested convergence on             energy=1.00D-06.
 No special actions if energy rises.
 SCF Done:  E(RB3LYP) =  -818.737675145     A.U. after   14 cycles
            NFock= 14  Conv=0.54D-08     -V/T= 2.0043

 **********************************************************************

            Population analysis using the SCF density.

 **********************************************************************

 Orbital symmetries:
       Occupied  (A) (A) (A) (A) (A) (A) (A) (A) (A) (A) (A) (A)
                 (A) (A) (A) (A) (A) (A) (A) (A) (A) (A) (A) (A)
                 (A) (A) (A) (A) (A) (A) (A) (A) (A) (A) (A) (A)
                 (A) (A) (A) (A) (A) (A) (A) (A) (A) (A) (A) (A)
                 (A) (A) (A) (A) (A) (A) (A) (A) (A) (A) (A) (A)
                 (A) (A) (A) (A) (A) (A) (A) (A) (A) (A) (A) (A)
                 (A) (A) (A) (A)
       Virtual   (A) (A) (A) (A) (A) (A) (A) (A) (A) (A) (A) (A)
                 (A) (A) (A) (A) (A) (A) (A) (A) (A) (A) (A) (A)
                 (A) (A) (A) (A) (A) (A) (A) (A) (A) (A) (A) (A)
                 (A) (A) (A) (A) (A) (A) (A) (A) (A) (A) (A) (A)
                 (A) (A) (A) (A) (A) (A) (A) (A) (A) (A) (A) (A)
                 (A) (A) (A) (A) (A) (A) (A) (A) (A) (A) (A) (A)
                 (A) (A) (A) (A) (A) (A) (A) (A) (A) (A) (A) (A)
                 (A) (A) (A) (A) (A) (A) (A) (A) (A) (A) (A) (A)
                 (A) (A) (A) (A) (A) (A) (A) (A) (A) (A) (A) (A)
                 (A) (A) (A) (A) (A) (A) (A) (A) (A) (A) (A) (A)
                 (A) (A) (A) (A) (A) (A) (A) (A) (A) (A) (A) (A)
                 (A) (A) (A) (A) (A) (A) (A) (A) (A) (A) (A) (A)
                 (A) (A) (A) (A) (A) (A) (A) (A) (A) (A) (A) (A)
                 (A) (A) (A) (A) (A) (A) (A) (A) (A) (A) (A) (A)
                 (A) (A) (A) (A) (A) (A) (A) (A) (A) (A) (A) (A)
                 (A) (A) (A) (A) (A) (A) (A) (A) (A) (A) (A) (A)
                 (A) (A) (A) (A) (A) (A) (A) (A) (A) (A) (A) (A)
                 (A) (A) (A) (A) (A) (A) (A) (A) (A) (A) (A) (A)
                 (A) (A) (A) (A) (A) (A) (A) (A) (A) (A) (A) (A)
                 (A) (A) (A) (A) (A) (A) (A) (A) (A) (A) (A) (A)
                 (A) (A) (A) (A) (A) (A) (A) (A) (A) (A) (A) (A)
                 (A) (A) (A) (A) (A) (A) (A) (A) (A) (A) (A) (A)
                 (A) (A) (A) (A) (A) (A) (A) (A) (A) (A) (A) (A)
                 (A) (A) (A) (A) (A) (A) (A) (A) (A) (A) (A) (A)
                 (A) (A) (A) (A) (A) (A) (A) (A) (A) (A) (A) (A)
                 (A) (A) (A) (A) (A) (A) (A) (A) (A) (A) (A) (A)
                 (A) (A) (A) (A) (A) (A) (A) (A) (A) (A) (A) (A)
                 (A) (A) (A) (A) (A) (A) (A) (A) (A) (A) (A) (A)
                 (A) (A) (A) (A) (A) (A) (A) (A) (A) (A) (A) (A)
                 (A) (A) (A) (A) (A) (A) (A) (A) (A) (A) (A) (A)
                 (A) (A) (A) (A) (A) (A) (A) (A) (A) (A) (A) (A)
                 (A) (A) (A) (A) (A) (A) (A) (A) (A) (A)
 The electronic state is 1-A.
 Alpha  occ. eigenvalues --  -19.16651 -19.12163 -10.31865 -10.24278 -10.19780
 Alpha  occ. eigenvalues --  -10.18420 -10.17681 -10.17269 -10.17092 -10.17017
 Alpha  occ. eigenvalues --  -10.16910 -10.16864 -10.16857 -10.16760 -10.16703
 Alpha  occ. eigenvalues --  -10.16682 -10.16669 -10.16650 -10.16316  -1.12148
 Alpha  occ. eigenvalues --   -1.02905  -0.83653  -0.82590  -0.81319  -0.79989
 Alpha  occ. eigenvalues --   -0.78326  -0.75737  -0.72494  -0.69713  -0.68811
 Alpha  occ. eigenvalues --   -0.65093  -0.62647  -0.60351  -0.58670  -0.58131
 Alpha  occ. eigenvalues --   -0.57360  -0.57047  -0.55633  -0.50999  -0.49935
 Alpha  occ. eigenvalues --   -0.49140  -0.48012  -0.47834  -0.46729  -0.45309
 Alpha  occ. eigenvalues --   -0.44867  -0.44471  -0.43591  -0.43102  -0.42827
 Alpha  occ. eigenvalues --   -0.41757  -0.40997  -0.40775  -0.39913  -0.39439
 Alpha  occ. eigenvalues --   -0.39196  -0.37947  -0.37491  -0.37100  -0.36391
 Alpha  occ. eigenvalues --   -0.35937  -0.35451  -0.35306  -0.34334  -0.34145
 Alpha  occ. eigenvalues --   -0.33703  -0.33639  -0.33325  -0.33058  -0.32780
 Alpha  occ. eigenvalues --   -0.32544  -0.32253  -0.32157  -0.29891  -0.29312
 Alpha  occ. eigenvalues --   -0.27562
 Alpha virt. eigenvalues --   -0.01847  -0.01025  -0.00603  -0.00324  -0.00034
 Alpha virt. eigenvalues --    0.00017   0.00604   0.00756   0.00939   0.01656
 Alpha virt. eigenvalues --    0.01832   0.01989   0.02703   0.02916   0.03030
 Alpha virt. eigenvalues --    0.03811   0.04073   0.04149   0.04459   0.04663
 Alpha virt. eigenvalues --    0.04945   0.05187   0.05476   0.05520   0.06045
 Alpha virt. eigenvalues --    0.06518   0.06570   0.06957   0.07258   0.07352
 Alpha virt. eigenvalues --    0.07904   0.08155   0.08889   0.09212   0.09566
 Alpha virt. eigenvalues --    0.09596   0.10055   0.10284   0.10585   0.10822
 Alpha virt. eigenvalues --    0.11261   0.11369   0.11658   0.11724   0.11953
 Alpha virt. eigenvalues --    0.12058   0.12222   0.12382   0.12490   0.12601
 Alpha virt. eigenvalues --    0.12893   0.12992   0.13226   0.13359   0.13436
 Alpha virt. eigenvalues --    0.13649   0.13829   0.13949   0.14110   0.14302
 Alpha virt. eigenvalues --    0.14512   0.14737   0.14832   0.15031   0.15082
 Alpha virt. eigenvalues --    0.15190   0.15303   0.15507   0.15911   0.16000
 Alpha virt. eigenvalues --    0.16204   0.16409   0.16450   0.16531   0.16761
 Alpha virt. eigenvalues --    0.17032   0.17260   0.17362   0.17710   0.17795
 Alpha virt. eigenvalues --    0.18161   0.18294   0.18437   0.19034   0.19239
 Alpha virt. eigenvalues --    0.19357   0.19527   0.19783   0.20030   0.20329
 Alpha virt. eigenvalues --    0.20600   0.21037   0.21167   0.21219   0.21506
 Alpha virt. eigenvalues --    0.21738   0.21996   0.22112   0.22266   0.22512
 Alpha virt. eigenvalues --    0.22784   0.23167   0.23518   0.23836   0.24116
 Alpha virt. eigenvalues --    0.24530   0.24640   0.24754   0.25110   0.25189
 Alpha virt. eigenvalues --    0.25740   0.25847   0.26129   0.26416   0.26727
 Alpha virt. eigenvalues --    0.26858   0.26958   0.27381   0.27980   0.28337
 Alpha virt. eigenvalues --    0.28986   0.29131   0.29502   0.30323   0.30509
 Alpha virt. eigenvalues --    0.30564   0.31194   0.31533   0.31823   0.32030
 Alpha virt. eigenvalues --    0.32246   0.32446   0.32793   0.33188   0.33319
 Alpha virt. eigenvalues --    0.33385   0.33557   0.34089   0.34639   0.34875
 Alpha virt. eigenvalues --    0.34917   0.35428   0.36183   0.36621   0.36961
 Alpha virt. eigenvalues --    0.37307   0.37581   0.38216   0.38574   0.39313
 Alpha virt. eigenvalues --    0.39766   0.40028   0.40219   0.40746   0.41158
 Alpha virt. eigenvalues --    0.41769   0.41801   0.42809   0.43531   0.44201
 Alpha virt. eigenvalues --    0.44899   0.45197   0.45387   0.45918   0.46556
 Alpha virt. eigenvalues --    0.46733   0.46843   0.47310   0.48864   0.49037
 Alpha virt. eigenvalues --    0.49730   0.50378   0.52004   0.52603   0.52911
 Alpha virt. eigenvalues --    0.54630   0.55908   0.56872   0.57195   0.57740
 Alpha virt. eigenvalues --    0.58482   0.58698   0.59594   0.60429   0.61228
 Alpha virt. eigenvalues --    0.62074   0.62643   0.63753   0.64266   0.64314
 Alpha virt. eigenvalues --    0.64586   0.64945   0.65396   0.65774   0.65885
 Alpha virt. eigenvalues --    0.66735   0.66817   0.67259   0.67432   0.67754
 Alpha virt. eigenvalues --    0.68090   0.68395   0.68502   0.68888   0.69241
 Alpha virt. eigenvalues --    0.69442   0.70012   0.70360   0.70612   0.70737
 Alpha virt. eigenvalues --    0.70920   0.71223   0.71777   0.72149   0.72298
 Alpha virt. eigenvalues --    0.72371   0.73073   0.73505   0.73787   0.74135
 Alpha virt. eigenvalues --    0.74245   0.74527   0.74887   0.74988   0.75154
 Alpha virt. eigenvalues --    0.75458   0.75622   0.75762   0.76165   0.76706
 Alpha virt. eigenvalues --    0.77042   0.77245   0.77811   0.77861   0.78701
 Alpha virt. eigenvalues --    0.78854   0.78910   0.79357   0.81238   0.82795
 Alpha virt. eigenvalues --    0.84388   0.85227   0.86452   0.88934   0.90904
 Alpha virt. eigenvalues --    0.92928   0.94570   0.96037   0.98114   1.00745
 Alpha virt. eigenvalues --    1.03144   1.03767   1.05718   1.06926   1.08202
 Alpha virt. eigenvalues --    1.09131   1.10495   1.10669   1.11551   1.11637
 Alpha virt. eigenvalues --    1.11777   1.18712   1.19001   1.21152   1.24189
 Alpha virt. eigenvalues --    1.25545   1.28510   1.30458   1.35614   1.42114
 Alpha virt. eigenvalues --    1.71318   1.72385   2.38779   2.39059   2.40897
 Alpha virt. eigenvalues --    2.42145   2.42918   2.43101   2.43341   2.43591
 Alpha virt. eigenvalues --    2.44134   2.44711   2.44988   2.46201   2.47329
 Alpha virt. eigenvalues --    2.48475   2.50901   2.51087   2.53042   2.53841
 Alpha virt. eigenvalues --    2.54856   2.54921   2.56089   2.56985   2.57517
 Alpha virt. eigenvalues --    2.57854   2.58152   2.59397   2.59773   2.60270
 Alpha virt. eigenvalues --    2.61275   2.61565   2.62113   2.62980   2.63038
 Alpha virt. eigenvalues --    2.65753   2.72903   2.85809   2.86550   2.89416
 Alpha virt. eigenvalues --    2.90284   2.90752   2.91616   2.92303   2.93498
 Alpha virt. eigenvalues --    2.93941   2.94517   2.94776   2.95604   2.96002
 Alpha virt. eigenvalues --    2.96044   2.96236   2.96413   2.96789   2.96991
 Alpha virt. eigenvalues --    2.97708   2.98170   2.98350   2.98875   2.99668
 Alpha virt. eigenvalues --    3.00031   3.00656   3.01488   3.03671   3.04052
 Alpha virt. eigenvalues --    3.04129   3.04976   3.06630   3.07255   3.07401
 Alpha virt. eigenvalues --    3.07878   3.08901   3.09291   3.10429   3.13077
 Alpha virt. eigenvalues --    3.14033   3.14624   3.17648   3.19355   3.20855
 Alpha virt. eigenvalues --    3.21676   3.22046   3.26553   3.26661   3.30584
 Alpha virt. eigenvalues --    3.39787   3.45001   5.05871   5.07470   5.10112
 Alpha virt. eigenvalues --    5.18767   5.21230   5.24878  23.32317  23.36085
 Alpha virt. eigenvalues --   23.40958  23.42774  23.45439  23.49002  23.51558
 Alpha virt. eigenvalues --   23.54182  23.55198  23.57393  23.58759  23.59429
 Alpha virt. eigenvalues --   23.60799  23.63569  23.68538  23.73812  23.76264
 Alpha virt. eigenvalues --   49.87903  49.92592
          Condensed to atoms (all electrons):
 Mulliken charges:
               1
     1  O    0.073380
     2  O   -0.234124
     3  C   -0.379729
     4  C   -0.396450
     5  C   -0.486539
     6  C   -0.476538
     7  C   -0.374874
     8  C   -0.495453
     9  C   -0.572673
    10  C   -0.391946
    11  C   -0.052940
    12  C   -0.366726
    13  C   -0.276923
    14  C   -0.152443
    15  C   -0.635819
    16  C   -0.129019
    17  C   -0.941033
    18  C   -0.866861
    19  C   -0.687933
    20  H    0.213878
    21  H    0.210386
    22  H    0.215090
    23  H    0.210341
    24  H    0.210111
    25  H    0.220096
    26  H    0.211260
    27  H    0.215518
    28  H    0.216473
    29  H    0.212900
    30  H    0.213734
    31  H    0.212194
    32  H    0.222481
    33  H    0.226593
    34  H    0.206872
    35  H    0.209307
    36  H    0.271561
    37  H    0.256744
    38  H    0.209123
    39  H    0.208283
    40  H    0.260348
    41  H    0.298433
    42  H    0.221924
    43  H    0.221804
    44  H    0.322337
    45  H    0.245846
    46  H    0.210773
    47  H    0.210499
    48  H    0.261688
    49  H    0.244164
    50  H    0.292178
    51  H    0.235999
    52  H    0.215954
    53  H    0.229749
 Sum of Mulliken charges =   0.00000
 Mulliken charges with hydrogens summed into heavy atoms:
               1
     1  O    0.073380
     2  O   -0.234124
     3  C    0.044535
     4  C    0.028981
     5  C   -0.056332
     6  C   -0.049760
     7  C    0.054499
     8  C   -0.069525
     9  C   -0.123599
    10  C    0.024233
    11  C    0.475366
    12  C    0.050680
    13  C    0.281859
    14  C    0.291285
    15  C   -0.635819
    16  C    0.193318
    17  C   -0.273915
    18  C   -0.153219
    19  C    0.078158
 Electronic spatial extent (au):  <R**2>=          20980.9828
 Charge=              0.0000 electrons
 Dipole moment (field-independent basis, Debye):
    X=             -1.1922    Y=              1.3917    Z=             -1.2116  Tot=              2.1969
 Quadrupole moment (field-independent basis, Debye-Ang):
   XX=           -139.1504   YY=           -127.8836   ZZ=           -128.2701
   XY=             12.2032   XZ=             -8.3731   YZ=              3.1740
 Traceless Quadrupole moment (field-independent basis, Debye-Ang):
   XX=             -7.3824   YY=              3.8844   ZZ=              3.4979
   XY=             12.2032   XZ=             -8.3731   YZ=              3.1740
 Octapole moment (field-independent basis, Debye-Ang**2):
  XXX=             81.1295  YYY=              0.6778  ZZZ=             -3.4065  XYY=             20.6024
  XXY=            110.1802  XXZ=            -49.3358  XZZ=             -2.0763  YZZ=              5.1541
  YYZ=             -3.1510  XYZ=             34.2638
 Hexadecapole moment (field-independent basis, Debye-Ang**3):
 XXXX=         -28859.9291 YYYY=           -958.0353 ZZZZ=           -370.0085 XXXY=            706.1908
 XXXZ=           -338.6754 YYYX=             18.4845 YYYZ=             -6.1324 ZZZX=            -13.2123
 ZZZY=              4.3662 XXYY=          -4874.7153 XXZZ=          -4831.1197 YYZZ=           -228.2871
 XXYZ=            157.4874 YYXZ=            -24.6021 ZZXY=             34.7340
 N-N= 1.330957710602D+03 E-N=-4.563579802304D+03  KE= 8.152171814274D+02
 Calling FoFJK, ICntrl=      2127 FMM=F ISym2X=0 I1Cent= 0 IOpClX= 0 NMat=1 NMatS=1 NMatT=0.
 ***** Axes restored to original set *****
 -------------------------------------------------------------------
 Center     Atomic                   Forces (Hartrees/Bohr)
 Number     Number              X              Y              Z
 -------------------------------------------------------------------
      1        8          -0.027228553    0.008550397    0.007926181
      2        8          -0.005785622    0.010211027   -0.015304906
      3        6           0.000333064   -0.011239816    0.000451466
      4        6          -0.000421661    0.010891321    0.001720652
      5        6          -0.000074170    0.010593891    0.001386976
      6        6           0.000701638   -0.011441898   -0.000656753
      7        6           0.000704677   -0.012247298    0.000125365
      8        6          -0.000112573    0.011387761    0.001874499
      9        6           0.001766280    0.012131684    0.001314406
     10        6          -0.000622954   -0.011395785   -0.001442209
     11        6          -0.000097310   -0.019130953    0.000496295
     12        6          -0.001221526    0.011335028    0.001984384
     13        6           0.014633987    0.019752410   -0.001548785
     14        6          -0.001043031   -0.019307236   -0.003182816
     15        6           0.013647079    0.001006857    0.003514268
     16        6           0.024656351   -0.020866328   -0.001243422
     17        6          -0.024582214    0.007705880    0.000477690
     18        6          -0.005792942    0.005032527    0.007031993
     19        6           0.002166150    0.018654089   -0.001740404
     20        1          -0.000816719    0.008611861   -0.012604020
     21        1           0.000565613    0.006859931    0.012853339
     22        1          -0.000243064   -0.006074987   -0.013542925
     23        1           0.000516108   -0.008842265    0.011891471
     24        1           0.000975283   -0.008731694    0.012104360
     25        1          -0.000794100   -0.005902197   -0.013299093
     26        1           0.000110457    0.006690033    0.013363490
     27        1          -0.000490909    0.008738110   -0.012035630
     28        1          -0.001286768    0.008457586   -0.012869226
     29        1           0.001041008    0.007434573    0.013367847
     30        1           0.000138177   -0.006022019   -0.013861148
     31        1           0.000165071   -0.009046797    0.011883096
     32        1           0.001534543   -0.008942200    0.011753908
     33        1          -0.001591510   -0.005556499   -0.013386482
     34        1          -0.000157531    0.006231313    0.013778420
     35        1          -0.000184098    0.009006804   -0.011885120
     36        1          -0.002138894    0.010544689   -0.014021215
     37        1           0.001652555    0.006603407    0.014216462
     38        1           0.000148978   -0.005626981   -0.013722750
     39        1          -0.000001142   -0.008858945    0.011513356
     40        1           0.003306157   -0.013130467    0.013191157
     41        1          -0.002687397   -0.006175214   -0.015415094
     42        1           0.000099159    0.005919696    0.014680493
     43        1           0.000321744    0.009213887   -0.012044874
     44        1          -0.000168703    0.007090393    0.018525269
     45        1           0.008346723    0.011992902    0.001716885
     46        1          -0.001726236   -0.009244453    0.011176238
     47        1          -0.001511209   -0.005645352   -0.012874821
     48        1           0.002800893   -0.004128095   -0.017030209
     49        1          -0.001960042   -0.003428739   -0.017893733
     50        1           0.000740154   -0.015731099    0.012178175
     51        1          -0.000393993   -0.002906248    0.003683833
     52        1          -0.001149742   -0.002404851    0.000990080
     53        1           0.003212766    0.001380361    0.000433584
 -------------------------------------------------------------------
 Cartesian Forces:  Max     0.027228553 RMS     0.009376027

 GradGradGradGradGradGradGradGradGradGradGradGradGradGradGradGradGradGrad
 Berny optimization.
 FormGI is forming the generalized inverse of G from B-inverse, IUseBI=4.
 Internal  Forces:  Max     0.027530485 RMS     0.007517954
 Search for a local minimum.
 Step number   1 out of a maximum of  299
 All quantities printed in internal units (Hartrees-Bohrs-Radians)
 Mixed Optimization -- RFO/linear search
 Second derivative matrix not updated -- first step.
 ITU=  0
     Eigenvalues ---    0.00357   0.00373   0.00560   0.00576   0.00579
     Eigenvalues ---    0.00580   0.00581   0.00581   0.00582   0.00586
     Eigenvalues ---    0.00587   0.00590   0.00595   0.00685   0.00792
     Eigenvalues ---    0.01064   0.01205   0.02084   0.03830   0.03830
     Eigenvalues ---    0.03835   0.03835   0.03843   0.03850   0.03853
     Eigenvalues ---    0.03858   0.03863   0.03871   0.03906   0.04337
     Eigenvalues ---    0.04494   0.05028   0.05028   0.05029   0.05031
     Eigenvalues ---    0.05033   0.05035   0.05036   0.05042   0.05043
     Eigenvalues ---    0.05050   0.05057   0.05283   0.05536   0.05633
     Eigenvalues ---    0.05657   0.05801   0.05836   0.05860   0.05863
     Eigenvalues ---    0.07209   0.08104   0.08164   0.08172   0.08191
     Eigenvalues ---    0.08194   0.08195   0.08220   0.08227   0.08233
     Eigenvalues ---    0.08234   0.08301   0.09190   0.12003   0.12049
     Eigenvalues ---    0.12057   0.12070   0.12071   0.12073   0.12092
     Eigenvalues ---    0.12097   0.12101   0.12102   0.12147   0.12637
     Eigenvalues ---    0.16000   0.16000   0.16000   0.16000   0.16000
     Eigenvalues ---    0.16000   0.16000   0.16000   0.16000   0.16041
     Eigenvalues ---    0.19221   0.21888   0.21892   0.21892   0.21894
     Eigenvalues ---    0.21894   0.21895   0.21895   0.21896   0.21896
     Eigenvalues ---    0.21900   0.21905   0.21971   0.24999   0.25000
     Eigenvalues ---    0.25000   0.29338   0.29452   0.30795   0.30918
     Eigenvalues ---    0.30938   0.30944   0.30954   0.30957   0.30962
     Eigenvalues ---    0.30991   0.30995   0.31021   0.31055   0.31171
     Eigenvalues ---    0.31196   0.31253   0.31255   0.31258   0.31266
     Eigenvalues ---    0.31288   0.31291   0.31306   0.31312   0.31319
     Eigenvalues ---    0.31321   0.31327   0.31330   0.31336   0.31341
     Eigenvalues ---    0.31344   0.31346   0.31354   0.31355   0.31362
     Eigenvalues ---    0.31367   0.31373   0.31393   0.31396   0.31412
     Eigenvalues ---    0.31415   0.31572   0.31744   0.31803   0.31891
     Eigenvalues ---    0.31902   0.32585   0.34777   0.34803   0.34836
     Eigenvalues ---    0.40023   0.50910   0.90560
 RFO step:  Lambda=-5.02405391D-02 EMin= 3.56896432D-03
 Linear search not attempted -- first point.
 Maximum step size (   0.300) exceeded in Quadratic search.
    -- Step size scaled by   0.787
 Iteration  1 RMS(Cart)=  0.12964982 RMS(Int)=  0.00095659
 Iteration  2 RMS(Cart)=  0.00229604 RMS(Int)=  0.00007959
 Iteration  3 RMS(Cart)=  0.00000383 RMS(Int)=  0.00007958
 Iteration  4 RMS(Cart)=  0.00000000 RMS(Int)=  0.00007958
 Variable       Old X    -DE/DX   Delta X   Delta X   Delta X     New X
                                 (Linear)    (Quad)   (Total)
    R1        2.58958   0.01409   0.00000   0.01982   0.01982   2.60940
    R2        2.71523   0.02753   0.00000   0.04811   0.04811   2.76333
    R3        2.32676   0.01010   0.00000   0.00832   0.00832   2.33508
    R4        2.86030   0.01690   0.00000   0.03694   0.03694   2.89724
    R5        2.86131   0.01663   0.00000   0.03640   0.03640   2.89771
    R6        2.12229  -0.01521   0.00000  -0.03299  -0.03299   2.08930
    R7        2.11963  -0.01453   0.00000  -0.03140  -0.03140   2.08822
    R8        2.86100   0.01667   0.00000   0.03646   0.03646   2.89747
    R9        2.12061  -0.01474   0.00000  -0.03191  -0.03191   2.08871
   R10        2.12041  -0.01476   0.00000  -0.03194  -0.03194   2.08847
   R11        2.86022   0.01687   0.00000   0.03686   0.03686   2.89707
   R12        2.12058  -0.01488   0.00000  -0.03221  -0.03221   2.08837
   R13        2.11927  -0.01445   0.00000  -0.03121  -0.03121   2.08806
   R14        2.85972   0.01706   0.00000   0.03726   0.03726   2.89698
   R15        2.12122  -0.01489   0.00000  -0.03226  -0.03226   2.08896
   R16        2.12088  -0.01481   0.00000  -0.03206  -0.03206   2.08882
   R17        2.86095   0.01651   0.00000   0.03612   0.03612   2.89707
   R18        2.12233  -0.01535   0.00000  -0.03331  -0.03331   2.08902
   R19        2.12208  -0.01529   0.00000  -0.03316  -0.03316   2.08892
   R20        2.85907   0.01723   0.00000   0.03759   0.03759   2.89666
   R21        2.12161  -0.01502   0.00000  -0.03255  -0.03255   2.08906
   R22        2.12076  -0.01486   0.00000  -0.03217  -0.03217   2.08859
   R23        2.86086   0.01564   0.00000   0.03422   0.03422   2.89507
   R24        2.12007  -0.01476   0.00000  -0.03193  -0.03193   2.08814
   R25        2.11932  -0.01446   0.00000  -0.03125  -0.03125   2.08807
   R26        2.86170   0.01636   0.00000   0.03582   0.03582   2.89752
   R27        2.12165  -0.01505   0.00000  -0.03263  -0.03263   2.08903
   R28        2.12067  -0.01483   0.00000  -0.03211  -0.03211   2.08856
   R29        2.86407   0.01819   0.00000   0.03998   0.03998   2.90404
   R30        2.12224  -0.01756   0.00000  -0.03809  -0.03809   2.08415
   R31        2.12132  -0.01571   0.00000  -0.03403  -0.03403   2.08728
   R32        2.86120   0.01595   0.00000   0.03490   0.03490   2.89610
   R33        2.12104  -0.01473   0.00000  -0.03190  -0.03190   2.08914
   R34        2.11969  -0.01444   0.00000  -0.03121  -0.03121   2.08849
   R35        2.83087   0.00216   0.00000   0.00451   0.00451   2.83538
   R36        2.12043  -0.01885   0.00000  -0.04078  -0.04078   2.07964
   R37        2.12018  -0.01679   0.00000  -0.03632  -0.03632   2.08386
   R38        2.84615   0.01901   0.00000   0.04070   0.04070   2.88684
   R39        2.12341  -0.01571   0.00000  -0.03415  -0.03415   2.08926
   R40        2.12093  -0.01505   0.00000  -0.03259  -0.03259   2.08834
   R41        2.89070   0.00127   0.00000   0.00290   0.00290   2.89361
   R42        2.89303   0.00257   0.00000   0.00588   0.00588   2.89890
   R43        2.12387  -0.01966   0.00000  -0.04275  -0.04275   2.08112
   R44        2.11023  -0.01397   0.00000  -0.02978  -0.02978   2.08045
   R45        2.11206  -0.01439   0.00000  -0.03076  -0.03076   2.08130
   R46        2.11044  -0.01392   0.00000  -0.02968  -0.02968   2.08076
   R47        2.11634  -0.01772   0.00000  -0.03812  -0.03812   2.07822
   R48        2.06039   0.00045   0.00000   0.00090   0.00090   2.06129
   R49        2.05996   0.00057   0.00000   0.00113   0.00113   2.06109
   R50        2.12028  -0.01830   0.00000  -0.03960  -0.03960   2.08068
   R51        2.12108  -0.01956   0.00000  -0.04236  -0.04236   2.07872
   R52        2.05942   0.00127   0.00000   0.00251   0.00251   2.06193
    A1        2.05807   0.01513   0.00000   0.03967   0.03967   2.09774
    A2        1.94311   0.01314   0.00000   0.04142   0.04140   1.98451
    A3        1.91381  -0.00381   0.00000  -0.00974  -0.00979   1.90402
    A4        1.91208  -0.00365   0.00000  -0.00875  -0.00882   1.90326
    A5        1.91376  -0.00374   0.00000  -0.00944  -0.00949   1.90427
    A6        1.91281  -0.00375   0.00000  -0.00925  -0.00932   1.90349
    A7        1.86670   0.00128   0.00000  -0.00628  -0.00646   1.86024
    A8        1.94081   0.01361   0.00000   0.04302   0.04299   1.98379
    A9        1.91340  -0.00377   0.00000  -0.00918  -0.00924   1.90415
   A10        1.91343  -0.00394   0.00000  -0.00992  -0.01000   1.90344
   A11        1.91369  -0.00395   0.00000  -0.00999  -0.01006   1.90363
   A12        1.91207  -0.00373   0.00000  -0.00892  -0.00898   1.90309
   A13        1.86905   0.00126   0.00000  -0.00702  -0.00721   1.86185
   A14        1.93793   0.01393   0.00000   0.04411   0.04407   1.98200
   A15        1.91173  -0.00381   0.00000  -0.00902  -0.00910   1.90263
   A16        1.91436  -0.00404   0.00000  -0.01030  -0.01037   1.90399
   A17        1.91291  -0.00392   0.00000  -0.00954  -0.00963   1.90328
   A18        1.91454  -0.00390   0.00000  -0.00966  -0.00972   1.90482
   A19        1.87116   0.00124   0.00000  -0.00753  -0.00773   1.86343
   A20        1.94429   0.01307   0.00000   0.04120   0.04118   1.98546
   A21        1.91216  -0.00371   0.00000  -0.00916  -0.00922   1.90294
   A22        1.91295  -0.00368   0.00000  -0.00909  -0.00914   1.90381
   A23        1.91270  -0.00369   0.00000  -0.00912  -0.00919   1.90351
   A24        1.91410  -0.00380   0.00000  -0.00973  -0.00979   1.90431
   A25        1.86599   0.00128   0.00000  -0.00616  -0.00633   1.85966
   A26        1.94451   0.01239   0.00000   0.03918   0.03915   1.98367
   A27        1.91385  -0.00357   0.00000  -0.00915  -0.00920   1.90465
   A28        1.91144  -0.00346   0.00000  -0.00826  -0.00834   1.90311
   A29        1.91278  -0.00355   0.00000  -0.00906  -0.00910   1.90368
   A30        1.91247  -0.00344   0.00000  -0.00816  -0.00823   1.90425
   A31        1.86716   0.00113   0.00000  -0.00650  -0.00665   1.86051
   A32        1.94020   0.01371   0.00000   0.04333   0.04330   1.98349
   A33        1.91329  -0.00384   0.00000  -0.00942  -0.00949   1.90381
   A34        1.91308  -0.00391   0.00000  -0.00974  -0.00981   1.90327
   A35        1.91363  -0.00391   0.00000  -0.00973  -0.00981   1.90382
   A36        1.91321  -0.00383   0.00000  -0.00936  -0.00942   1.90379
   A37        1.86907   0.00126   0.00000  -0.00710  -0.00729   1.86178
   A38        1.93149   0.01338   0.00000   0.04246   0.04242   1.97392
   A39        1.91426  -0.00388   0.00000  -0.00947  -0.00958   1.90468
   A40        1.91478  -0.00365   0.00000  -0.00902  -0.00906   1.90572
   A41        1.91377  -0.00345   0.00000  -0.00746  -0.00754   1.90623
   A42        1.91640  -0.00402   0.00000  -0.01069  -0.01075   1.90565
   A43        1.87220   0.00116   0.00000  -0.00755  -0.00773   1.86446
   A44        1.94397   0.01302   0.00000   0.04114   0.04111   1.98508
   A45        1.91208  -0.00365   0.00000  -0.00888  -0.00894   1.90314
   A46        1.91383  -0.00370   0.00000  -0.00925  -0.00930   1.90453
   A47        1.91204  -0.00367   0.00000  -0.00900  -0.00907   1.90297
   A48        1.91257  -0.00371   0.00000  -0.00931  -0.00937   1.90320
   A49        1.86778   0.00120   0.00000  -0.00672  -0.00690   1.86088
   A50        1.94017   0.00878   0.00000   0.02822   0.02818   1.96835
   A51        1.91916  -0.00238   0.00000  -0.00559  -0.00565   1.91352
   A52        1.91139  -0.00248   0.00000  -0.00631  -0.00635   1.90505
   A53        1.90572  -0.00231   0.00000  -0.00489  -0.00493   1.90079
   A54        1.91211  -0.00236   0.00000  -0.00552  -0.00554   1.90656
   A55        1.87408   0.00045   0.00000  -0.00718  -0.00726   1.86683
   A56        1.94083   0.01323   0.00000   0.04191   0.04187   1.98270
   A57        1.91267  -0.00356   0.00000  -0.00831  -0.00837   1.90430
   A58        1.91404  -0.00374   0.00000  -0.00917  -0.00923   1.90481
   A59        1.91290  -0.00385   0.00000  -0.00976  -0.00985   1.90305
   A60        1.91226  -0.00372   0.00000  -0.00921  -0.00929   1.90298
   A61        1.86977   0.00114   0.00000  -0.00740  -0.00758   1.86219
   A62        1.93123   0.00975   0.00000   0.03041   0.03038   1.96161
   A63        1.93108  -0.00166   0.00000  -0.00258  -0.00256   1.92852
   A64        1.92025  -0.00211   0.00000  -0.00414  -0.00415   1.91610
   A65        1.88554  -0.00367   0.00000  -0.01107  -0.01116   1.87438
   A66        1.90014  -0.00312   0.00000  -0.00826  -0.00834   1.89180
   A67        1.89470   0.00061   0.00000  -0.00518  -0.00527   1.88942
   A68        1.94918   0.00957   0.00000   0.03075   0.03071   1.97990
   A69        1.90880  -0.00288   0.00000  -0.00771  -0.00779   1.90102
   A70        1.91036  -0.00292   0.00000  -0.00789  -0.00797   1.90240
   A71        1.91353  -0.00231   0.00000  -0.00441  -0.00443   1.90909
   A72        1.91385  -0.00232   0.00000  -0.00448  -0.00450   1.90935
   A73        1.86624   0.00046   0.00000  -0.00801  -0.00811   1.85813
   A74        2.07206   0.02347   0.00000   0.06157   0.06152   2.13358
   A75        1.96965  -0.00949   0.00000  -0.02483  -0.02488   1.94478
   A76        2.24144  -0.01397   0.00000  -0.03660  -0.03664   2.20479
   A77        1.85036  -0.00214   0.00000  -0.00107  -0.00154   1.84882
   A78        1.89450   0.00295   0.00000   0.01809   0.01792   1.91242
   A79        1.92308  -0.00205   0.00000  -0.02089  -0.02087   1.90221
   A80        1.93399   0.00498   0.00000   0.02303   0.02288   1.95686
   A81        1.93471  -0.00098   0.00000  -0.00695  -0.00694   1.92778
   A82        1.92548  -0.00266   0.00000  -0.01147  -0.01134   1.91414
   A83        1.92445   0.00577   0.00000   0.02221   0.02211   1.94656
   A84        1.93171   0.00200   0.00000   0.00718   0.00712   1.93883
   A85        1.93197   0.00197   0.00000   0.00707   0.00701   1.93898
   A86        1.89298  -0.00382   0.00000  -0.01374  -0.01384   1.87914
   A87        1.89294  -0.00380   0.00000  -0.01365  -0.01375   1.87918
   A88        1.88866  -0.00249   0.00000  -0.01050  -0.01051   1.87815
   A89        1.93845  -0.00302   0.00000  -0.01271  -0.01264   1.92581
   A90        1.90358   0.00656   0.00000   0.02559   0.02550   1.92909
   A91        1.90363   0.00318   0.00000   0.01222   0.01211   1.91573
   A92        1.90359  -0.00215   0.00000  -0.00873  -0.00865   1.89495
   A93        1.90357  -0.00088   0.00000  -0.00538  -0.00534   1.89823
   A94        1.91087  -0.00374   0.00000  -0.01114  -0.01141   1.89947
   A95        1.93612  -0.00248   0.00000  -0.01043  -0.01038   1.92575
   A96        1.90802   0.00503   0.00000   0.01904   0.01895   1.92697
   A97        1.90137   0.00432   0.00000   0.01710   0.01700   1.91837
   A98        1.91504  -0.00201   0.00000  -0.00932  -0.00926   1.90577
   A99        1.90159  -0.00118   0.00000  -0.00490  -0.00484   1.89675
   A100       1.90131  -0.00371   0.00000  -0.01149  -0.01173   1.88957
    D1       -0.14906   0.00345   0.00000   0.04012   0.04056  -0.10851
    D2        3.00110   0.00227   0.00000   0.02322   0.02279   3.02389
    D3       -2.68623   0.00397   0.00000   0.02774   0.02767  -2.65855
    D4        1.51846  -0.00224   0.00000  -0.00804  -0.00806   1.51040
    D5       -0.59174   0.00042   0.00000   0.00743   0.00752  -0.58422
    D6        3.09982   0.00018   0.00000   0.00210   0.00210   3.10193
    D7       -1.06430   0.00160   0.00000   0.01155   0.01153  -1.05277
    D8        0.98276  -0.00138   0.00000  -0.00814  -0.00811   0.97465
    D9       -1.06242   0.00155   0.00000   0.01090   0.01087  -1.05155
   D10        1.05665   0.00297   0.00000   0.02034   0.02030   1.07694
   D11        3.10371  -0.00002   0.00000   0.00065   0.00065   3.10436
   D12        0.98125  -0.00124   0.00000  -0.00747  -0.00746   0.97379
   D13        3.10031   0.00017   0.00000   0.00197   0.00197   3.10228
   D14       -1.13581  -0.00281   0.00000  -0.01772  -0.01768  -1.15349
   D15       -3.10902  -0.00015   0.00000  -0.00177  -0.00178  -3.11080
   D16       -0.99392   0.00142   0.00000   0.00886   0.00884  -0.98508
   D17        1.05527  -0.00167   0.00000  -0.01159  -0.01157   1.04370
   D18        1.05318  -0.00147   0.00000  -0.01039  -0.01037   1.04281
   D19       -3.11490   0.00010   0.00000   0.00025   0.00025  -3.11465
   D20       -1.06571  -0.00299   0.00000  -0.02021  -0.02016  -1.08587
   D21       -0.99088   0.00134   0.00000   0.00812   0.00809  -0.98279
   D22        1.12423   0.00292   0.00000   0.01875   0.01871   1.14294
   D23       -3.10977  -0.00018   0.00000  -0.00170  -0.00170  -3.11147
   D24       -3.12974  -0.00003   0.00000  -0.00057  -0.00057  -3.13032
   D25       -1.01048   0.00139   0.00000   0.00878   0.00875  -1.00173
   D26        1.03187  -0.00136   0.00000  -0.00927  -0.00926   1.02261
   D27        1.03455  -0.00156   0.00000  -0.01049  -0.01046   1.02409
   D28       -3.12937  -0.00014   0.00000  -0.00114  -0.00114  -3.13051
   D29       -1.08702  -0.00288   0.00000  -0.01920  -0.01915  -1.10617
   D30       -1.01189   0.00140   0.00000   0.00906   0.00904  -1.00285
   D31        1.10738   0.00282   0.00000   0.01840   0.01836   1.12574
   D32       -3.13346   0.00008   0.00000   0.00035   0.00035  -3.13311
   D33        3.10028   0.00027   0.00000   0.00303   0.00304   3.10332
   D34       -1.06224   0.00155   0.00000   0.01123   0.01121  -1.05103
   D35        0.98164  -0.00118   0.00000  -0.00677  -0.00675   0.97489
   D36        0.98587  -0.00138   0.00000  -0.00794  -0.00792   0.97795
   D37        3.10653  -0.00011   0.00000   0.00026   0.00026   3.10679
   D38       -1.13278  -0.00283   0.00000  -0.01774  -0.01770  -1.15048
   D39       -1.06411   0.00171   0.00000   0.01248   0.01247  -1.05165
   D40        1.05655   0.00298   0.00000   0.02068   0.02064   1.07719
   D41        3.10043   0.00026   0.00000   0.00268   0.00268   3.10310
   D42        3.11058   0.00009   0.00000   0.00117   0.00117   3.11175
   D43       -1.05409   0.00157   0.00000   0.01095   0.01093  -1.04315
   D44        0.99273  -0.00144   0.00000  -0.00885  -0.00883   0.98390
   D45        0.99163  -0.00132   0.00000  -0.00817  -0.00816   0.98348
   D46        3.11015   0.00016   0.00000   0.00161   0.00161   3.11176
   D47       -1.12622  -0.00284   0.00000  -0.01820  -0.01815  -1.14437
   D48       -1.05171   0.00149   0.00000   0.01028   0.01025  -1.04146
   D49        1.06681   0.00297   0.00000   0.02006   0.02001   1.08683
   D50        3.11363  -0.00003   0.00000   0.00026   0.00025   3.11388
   D51       -3.06381  -0.00042   0.00000  -0.00422  -0.00421  -3.06802
   D52       -0.95012   0.00137   0.00000   0.00766   0.00763  -0.94249
   D53        1.10206  -0.00167   0.00000  -0.01245  -0.01243   1.08963
   D54        1.09809  -0.00167   0.00000  -0.01233  -0.01230   1.08579
   D55       -3.07140   0.00011   0.00000  -0.00046  -0.00046  -3.07187
   D56       -1.01923  -0.00292   0.00000  -0.02056  -0.02052  -1.03975
   D57       -0.94576   0.00103   0.00000   0.00555   0.00554  -0.94022
   D58        1.16793   0.00282   0.00000   0.01742   0.01738   1.18531
   D59       -3.06308  -0.00022   0.00000  -0.00268  -0.00268  -3.06576
   D60       -3.14050  -0.00002   0.00000  -0.00027  -0.00028  -3.14078
   D61       -1.02233   0.00143   0.00000   0.00935   0.00932  -1.01301
   D62        1.02265  -0.00140   0.00000  -0.00937  -0.00935   1.01330
   D63        1.02436  -0.00154   0.00000  -0.01025  -0.01023   1.01413
   D64       -3.14065  -0.00009   0.00000  -0.00063  -0.00063  -3.14128
   D65       -1.09567  -0.00292   0.00000  -0.01935  -0.01930  -1.11497
   D66       -1.02273   0.00146   0.00000   0.00953   0.00950  -1.01322
   D67        1.09545   0.00291   0.00000   0.01915   0.01911   1.11455
   D68        3.14043   0.00007   0.00000   0.00043   0.00043   3.14086
   D69       -3.13991   0.00001   0.00000   0.00077   0.00079  -3.13912
   D70       -1.02741   0.00127   0.00000   0.00940   0.00941  -1.01799
   D71        1.02796  -0.00107   0.00000  -0.00641  -0.00638   1.02158
   D72        1.02931  -0.00152   0.00000  -0.00990  -0.00990   1.01941
   D73       -3.14138  -0.00026   0.00000  -0.00127  -0.00127   3.14053
   D74       -1.08602  -0.00259   0.00000  -0.01708  -0.01706  -1.10308
   D75       -1.02355   0.00149   0.00000   0.01003   0.01000  -1.01354
   D76        1.08895   0.00275   0.00000   0.01867   0.01863   1.10758
   D77       -3.13887   0.00041   0.00000   0.00285   0.00284  -3.13603
   D78        3.12126   0.00008   0.00000   0.00079   0.00078   3.12204
   D79       -1.04433   0.00150   0.00000   0.01031   0.01030  -1.03403
   D80        1.00354  -0.00139   0.00000  -0.00891  -0.00889   0.99465
   D81        1.00306  -0.00137   0.00000  -0.00890  -0.00889   0.99417
   D82        3.12066   0.00004   0.00000   0.00062   0.00063   3.12128
   D83       -1.11466  -0.00285   0.00000  -0.01860  -0.01856  -1.13322
   D84       -1.04116   0.00147   0.00000   0.00988   0.00985  -1.03131
   D85        1.07643   0.00288   0.00000   0.01940   0.01937   1.09580
   D86        3.12430  -0.00001   0.00000   0.00018   0.00018   3.12448
   D87       -3.05712  -0.00001   0.00000  -0.00120  -0.00120  -3.05832
   D88       -0.96790   0.00064   0.00000   0.00301   0.00303  -0.96487
   D89        1.12565  -0.00102   0.00000  -0.00776  -0.00777   1.11788
   D90        1.10569  -0.00115   0.00000  -0.00915  -0.00915   1.09654
   D91       -3.08827  -0.00049   0.00000  -0.00494  -0.00492  -3.09319
   D92       -0.99473  -0.00215   0.00000  -0.01570  -0.01572  -1.01044
   D93       -0.94222   0.00100   0.00000   0.00553   0.00552  -0.93670
   D94        1.14701   0.00166   0.00000   0.00974   0.00975   1.15676
   D95       -3.04263   0.00000   0.00000  -0.00103  -0.00105  -3.04368
   D96        3.13586   0.00005   0.00000   0.00030   0.00029   3.13615
   D97       -1.02609   0.00144   0.00000   0.00967   0.00963  -1.01646
   D98        1.01314  -0.00134   0.00000  -0.00893  -0.00891   1.00423
   D99        1.01839  -0.00153   0.00000  -0.01008  -0.01005   1.00834
   D100       3.13963  -0.00014   0.00000  -0.00071  -0.00071   3.13892
   D101      -1.10432  -0.00291   0.00000  -0.01931  -0.01925  -1.12358
   D102      -1.02857   0.00150   0.00000   0.00996   0.00994  -1.01863
   D103       1.09267   0.00289   0.00000   0.01933   0.01928   1.11195
   D104       3.13190   0.00012   0.00000   0.00074   0.00074   3.13264
   D105      -1.16041   0.00059   0.00000   0.00685   0.00669  -1.15372
   D106       1.99078  -0.00095   0.00000  -0.01268  -0.01256   1.97822
   D107       3.00640  -0.00096   0.00000  -0.00145  -0.00152   3.00488
   D108      -0.12560  -0.00251   0.00000  -0.02097  -0.02077  -0.14637
   D109       0.95197   0.00206   0.00000   0.01541   0.01522   0.96719
   D110      -2.18003   0.00051   0.00000  -0.00412  -0.00403  -2.18405
   D111       3.13897   0.00001   0.00000   0.00006   0.00006   3.13903
   D112       1.04445  -0.00025   0.00000  -0.00184  -0.00187   1.04258
   D113      -1.04958   0.00028   0.00000   0.00201   0.00203  -1.04755
   D114       1.02046  -0.00109   0.00000  -0.00751  -0.00752   1.01295
   D115      -1.07406  -0.00135   0.00000  -0.00941  -0.00944  -1.08350
   D116       3.11510  -0.00082   0.00000  -0.00556  -0.00555   3.10956
   D117      -1.02352   0.00107   0.00000   0.00740   0.00741  -1.01611
   D118      -3.11804   0.00081   0.00000   0.00550   0.00548  -3.11256
   D119       1.07112   0.00134   0.00000   0.00934   0.00938   1.08050
   D120      -0.86466  -0.00373   0.00000  -0.02920  -0.02918  -0.89384
   D121       1.23382  -0.00404   0.00000  -0.03141  -0.03150   1.20233
   D122      -2.96315  -0.00281   0.00000  -0.02250  -0.02241  -2.98555
   D123       1.18766   0.00115   0.00000   0.00375   0.00377   1.19143
   D124      -2.99705   0.00084   0.00000   0.00155   0.00146  -2.99558
   D125      -0.91083   0.00208   0.00000   0.01046   0.01055  -0.90028
   D126      -2.95154   0.00055   0.00000   0.00034   0.00034  -2.95120
   D127      -0.85306   0.00024   0.00000  -0.00187  -0.00197  -0.85503
   D128       1.23316   0.00147   0.00000   0.00704   0.00711   1.24027
   D129       1.06473   0.00112   0.00000   0.01161   0.01174   1.07647
   D130      -1.04941   0.00191   0.00000   0.01738   0.01760  -1.03182
   D131      -3.12531   0.00090   0.00000   0.01005   0.01011  -3.11521
   D132      -0.96041  -0.00082   0.00000  -0.01059  -0.01073  -0.97114
   D133      -3.07455  -0.00003   0.00000  -0.00482  -0.00487  -3.07942
   D134       1.13273  -0.00105   0.00000  -0.01215  -0.01236   1.12037
   D135      -3.10974  -0.00116   0.00000  -0.00966  -0.00966  -3.11940
   D136       1.05930  -0.00038   0.00000  -0.00389  -0.00380   1.05550
   D137      -1.01660  -0.00139   0.00000  -0.01122  -0.01129  -1.02789
         Item               Value     Threshold  Converged?
 Maximum Force            0.027530     0.000450     NO 
 RMS     Force            0.007518     0.000300     NO 
 Maximum Displacement     0.498833     0.001800     NO 
 RMS     Displacement     0.128606     0.001200     NO 
 Predicted change in Energy=-2.672606D-02
 GradGradGradGradGradGradGradGradGradGradGradGradGradGradGradGradGradGrad

 Stoichiometry    C17H34O2
 Framework group  C1[X(C17H34O2)]
 Deg. of freedom   153
 Full point group                 C1      NOp   1
[...]
      5          6           0       -0.553056   -0.814232   -0.254595
      6          6           0       -4.317246    0.268237    0.267871
      7          6           0        0.799802   -0.277685    0.243466
      8          6           0       -5.671771   -0.268120   -0.225924
      9          6           0        2.006092   -1.075196   -0.280814
     10          6           0       -6.875642    0.551099    0.269957
     11          6           0        3.353118   -0.537023    0.228630
     12          6           0       -8.230256    0.014952   -0.223056
     13          6           0        4.554638   -1.341771   -0.318278
     14          6           0       -9.434484    0.836724    0.268222
     15          6           0        5.875684   -0.843678    0.202965
     16          6           0        7.440793    1.071830    0.157882
     17          6           0      -10.782796    0.292995   -0.227947
     18          6           0        7.148273    2.563788    0.123019
     19          6           0        8.572045    0.634753   -0.765552
     20          1           0       -1.650732    1.037973   -0.050548
     21          1           0       -1.750464   -0.005746    1.355579
     22          1           0       -3.117755   -0.555648   -1.332306
     23          1           0       -3.224723   -1.589487    0.080585
     24          1           0       -0.661375   -1.861533    0.052078
     25          1           0       -0.559927   -0.813951   -1.351265
     26          1           0       -4.312022    0.280209    1.364505
     27          1           0       -4.205078    1.311968   -0.049859
     28          1           0        0.904388    0.772115   -0.055522
     29          1           0        0.809798   -0.286597    1.339897
     30          1           0       -5.674570   -0.285481   -1.322515
     31          1           0       -5.786853   -1.310002    0.096661
     32          1           0        1.899496   -2.126400    0.011738
     33          1           0        2.001420   -1.058450   -1.377256
     34          1           0       -6.872629    0.569599    1.366553
     35          1           0       -6.760546    1.592706   -0.053722
     36          1           0        3.466481    0.510839   -0.060031
     37          1           0        3.367592   -0.568621    1.323065
     38          1           0       -8.233111   -0.006691   -1.319702
     39          1           0       -8.348154   -1.025626    0.103274
     40          1           0        4.468829   -2.390753   -0.035246
     41          1           0        4.562700   -1.280138   -1.409513
     42          1           0       -9.431116    0.859068    1.363886
     43          1           0       -9.317394    1.876149   -0.058644
     44          1           0        7.631247    0.729411    1.175350
     45          1           0      -11.615883    0.898164    0.137176
     46          1           0      -10.943006   -0.733441    0.113228
     47          1           0      -10.828189    0.289330   -1.320428
     48          1           0        6.903799    2.886218   -0.890343
     49          1           0        8.350845    0.909466   -1.798509
     50          1           0        8.723972   -0.442853   -0.711278
     51          1           0        6.309733    2.809529    0.774629
     52          1           0        8.022545    3.124113    0.462053
     53          1           0        9.504548    1.122671   -0.471828
 ---------------------------------------------------------------------
 Rotational constants (GHZ):      1.4894895      0.0484494      0.0475043

 **********************************************************************

            Population analysis using the SCF density.

 **********************************************************************

 Orbital symmetries:
       Occupied  (A) (A) (A) (A) (A) (A) (A) (A) (A) (A) (A) (A)
                 (A) (A) (A) (A) (A) (A) (A) (A) (A) (A) (A) (A)
                 (A) (A) (A) (A) (A) (A) (A) (A) (A) (A) (A) (A)
                 (A) (A) (A) (A) (A) (A) (A) (A) (A) (A) (A) (A)
                 (A) (A) (A) (A) (A) (A) (A) (A) (A) (A) (A) (A)
                 (A) (A) (A) (A) (A) (A) (A) (A) (A) (A) (A) (A)
                 (A) (A) (A) (A)
       Virtual   (A) (A) (A) (A) (A) (A) (A) (A) (A) (A) (A) (A)
                 (A) (A) (A) (A) (A) (A) (A) (A) (A) (A) (A) (A)
                 (A) (A) (A) (A) (A) (A) (A) (A) (A) (A) (A) (A)
                 (A) (A) (A) (A) (A) (A) (A) (A) (A) (A) (A) (A)
                 (A) (A) (A) (A) (A) (A) (A) (A) (A) (A) (A) (A)
                 (A) (A) (A) (A) (A) (A) (A) (A) (A) (A) (A) (A)
                 (A) (A) (A) (A) (A) (A) (A) (A) (A) (A) (A) (A)
                 (A) (A) (A) (A) (A) (A) (A) (A) (A) (A) (A) (A)
                 (A) (A) (A) (A) (A) (A) (A) (A) (A) (A) (A) (A)
                 (A) (A) (A) (A) (A) (A) (A) (A) (A) (A) (A) (A)
                 (A) (A) (A) (A) (A) (A) (A) (A) (A) (A) (A) (A)
                 (A) (A) (A) (A) (A) (A) (A) (A) (A) (A) (A) (A)
                 (A) (A) (A) (A) (A) (A) (A) (A) (A) (A) (A) (A)
                 (A) (A) (A) (A) (A) (A) (A) (A) (A) (A) (A) (A)
                 (A) (A) (A) (A) (A) (A) (A) (A) (A) (A) (A) (A)
                 (A) (A) (A) (A) (A) (A) (A) (A) (A) (A) (A) (A)
                 (A) (A) (A) (A) (A) (A) (A) (A) (A) (A) (A) (A)
                 (A) (A) (A) (A) (A) (A) (A) (A) (A) (A) (A) (A)
                 (A) (A) (A) (A) (A) (A) (A) (A) (A) (A) (A) (A)
                 (A) (A) (A) (A) (A) (A) (A) (A) (A) (A) (A) (A)
                 (A) (A) (A) (A) (A) (A) (A) (A) (A) (A) (A) (A)
                 (A) (A) (A) (A) (A) (A) (A) (A) (A) (A) (A) (A)
                 (A) (A) (A) (A) (A) (A) (A) (A) (A) (A) (A) (A)
                 (A) (A) (A) (A) (A) (A) (A) (A) (A) (A) (A) (A)
                 (A) (A) (A) (A) (A) (A) (A) (A) (A) (A) (A) (A)
                 (A) (A) (A) (A) (A) (A) (A) (A) (A) (A) (A) (A)
                 (A) (A) (A) (A) (A) (A) (A) (A) (A) (A) (A) (A)
                 (A) (A) (A) (A) (A) (A) (A) (A) (A) (A) (A) (A)
                 (A) (A) (A) (A) (A) (A) (A) (A) (A) (A) (A) (A)
                 (A) (A) (A) (A) (A) (A) (A) (A) (A) (A) (A) (A)
                 (A) (A) (A) (A) (A) (A) (A) (A) (A) (A) (A) (A)
                 (A) (A) (A) (A) (A) (A) (A) (A) (A) (A)
 The electronic state is 1-A.
 Alpha  occ. eigenvalues --  -19.16605 -19.12170 -10.31796 -10.24496 -10.18933
 Alpha  occ. eigenvalues --  -10.17948 -10.17317 -10.17238 -10.17025 -10.16981
 Alpha  occ. eigenvalues --  -10.16801 -10.16678 -10.16654 -10.16601 -10.16550
 Alpha  occ. eigenvalues --  -10.16515 -10.16487 -10.16448 -10.15820  -1.10589
 Alpha  occ. eigenvalues --   -1.02347  -0.82678  -0.81756  -0.80838  -0.79689
 Alpha  occ. eigenvalues --   -0.77827  -0.75316  -0.72287  -0.70778  -0.68865
 Alpha  occ. eigenvalues --   -0.65336  -0.62714  -0.61067  -0.59206  -0.58636
 Alpha  occ. eigenvalues --   -0.58087  -0.57852  -0.56038  -0.50521  -0.49536
 Alpha  occ. eigenvalues --   -0.48805  -0.47791  -0.47453  -0.46671  -0.45366
 Alpha  occ. eigenvalues --   -0.44861  -0.43947  -0.43367  -0.43161  -0.42547
 Alpha  occ. eigenvalues --   -0.41659  -0.41383  -0.40656  -0.40431  -0.39895
 Alpha  occ. eigenvalues --   -0.39120  -0.38212  -0.37725  -0.37139  -0.36934
 Alpha  occ. eigenvalues --   -0.36205  -0.36010  -0.35117  -0.34586  -0.34130
 Alpha  occ. eigenvalues --   -0.33872  -0.33430  -0.33213  -0.32995  -0.32827
 Alpha  occ. eigenvalues --   -0.32587  -0.32479  -0.32342  -0.30242  -0.30048
 Alpha  occ. eigenvalues --   -0.27579
 Alpha virt. eigenvalues --   -0.01620  -0.00865  -0.00668  -0.00234   0.00167
 Alpha virt. eigenvalues --    0.00457   0.00703   0.00866   0.01294   0.01647
 Alpha virt. eigenvalues --    0.01852   0.02110   0.02693   0.02934   0.03194
 Alpha virt. eigenvalues --    0.03911   0.04059   0.04221   0.04392   0.04709
 Alpha virt. eigenvalues --    0.05097   0.05312   0.05444   0.05699   0.05989
 Alpha virt. eigenvalues --    0.06476   0.06589   0.07081   0.07243   0.07338
 Alpha virt. eigenvalues --    0.08010   0.08124   0.08735   0.09037   0.09522
 Alpha virt. eigenvalues --    0.09681   0.10053   0.10170   0.10407   0.10710
 Alpha virt. eigenvalues --    0.10879   0.11411   0.11732   0.11928   0.12145
 Alpha virt. eigenvalues --    0.12264   0.12321   0.12482   0.12559   0.12735
 Alpha virt. eigenvalues --    0.12830   0.13188   0.13263   0.13309   0.13442
 Alpha virt. eigenvalues --    0.13606   0.13803   0.14072   0.14131   0.14296
 Alpha virt. eigenvalues --    0.14464   0.14780   0.14866   0.14954   0.15175
 Alpha virt. eigenvalues --    0.15362   0.15557   0.15905   0.16049   0.16135
 Alpha virt. eigenvalues --    0.16296   0.16400   0.16433   0.16829   0.16908
 Alpha virt. eigenvalues --    0.17086   0.17403   0.17546   0.17598   0.17854
 Alpha virt. eigenvalues --    0.18239   0.18447   0.18544   0.18755   0.18942
 Alpha virt. eigenvalues --    0.19109   0.19354   0.19781   0.19868   0.19969
 Alpha virt. eigenvalues --    0.20340   0.20875   0.21163   0.21359   0.21505
 Alpha virt. eigenvalues --    0.21592   0.21757   0.21811   0.22213   0.22487
 Alpha virt. eigenvalues --    0.22748   0.22872   0.23195   0.23662   0.23802
 Alpha virt. eigenvalues --    0.24124   0.24332   0.24677   0.24880   0.25011
 Alpha virt. eigenvalues --    0.25493   0.25649   0.25732   0.26134   0.26402
 Alpha virt. eigenvalues --    0.26525   0.27144   0.27382   0.27696   0.27923
 Alpha virt. eigenvalues --    0.28195   0.28831   0.29636   0.30108   0.30606
 Alpha virt. eigenvalues --    0.31054   0.31279   0.31438   0.31890   0.32017
 Alpha virt. eigenvalues --    0.32365   0.32493   0.32763   0.33094   0.33166
 Alpha virt. eigenvalues --    0.33326   0.33439   0.33946   0.34270   0.34720
 Alpha virt. eigenvalues --    0.35164   0.35439   0.35724   0.36356   0.36594
 Alpha virt. eigenvalues --    0.36879   0.37259   0.38031   0.38243   0.38370
 Alpha virt. eigenvalues --    0.39017   0.39751   0.39943   0.40409   0.40669
 Alpha virt. eigenvalues --    0.41728   0.42007   0.42850   0.42939   0.44120
 Alpha virt. eigenvalues --    0.44512   0.45279   0.45512   0.45751   0.46181
 Alpha virt. eigenvalues --    0.46319   0.46534   0.47240   0.48469   0.48803
 Alpha virt. eigenvalues --    0.49259   0.49635   0.51378   0.51907   0.52659
 Alpha virt. eigenvalues --    0.54223   0.54945   0.56226   0.56517   0.57409
 Alpha virt. eigenvalues --    0.57604   0.58232   0.58809   0.59217   0.60198
 Alpha virt. eigenvalues --    0.61212   0.61655   0.63329   0.63894   0.64256
 Alpha virt. eigenvalues --    0.64805   0.65193   0.65318   0.65651   0.65932
 Alpha virt. eigenvalues --    0.66027   0.66637   0.66947   0.67219   0.67633
 Alpha virt. eigenvalues --    0.67720   0.67858   0.68421   0.68925   0.69159
 Alpha virt. eigenvalues --    0.69470   0.69631   0.70181   0.70472   0.71007
 Alpha virt. eigenvalues --    0.71173   0.71695   0.71823   0.72075   0.72613
 Alpha virt. eigenvalues --    0.72689   0.73068   0.73862   0.74105   0.74649
 Alpha virt. eigenvalues --    0.75014   0.75308   0.75764   0.76167   0.76246
 Alpha virt. eigenvalues --    0.76473   0.76733   0.77244   0.77572   0.78001
 Alpha virt. eigenvalues --    0.78056   0.78693   0.78738   0.79071   0.79484
 Alpha virt. eigenvalues --    0.79935   0.80042   0.80324   0.80762   0.81410
 Alpha virt. eigenvalues --    0.84728   0.85244   0.85976   0.88674   0.90149
 Alpha virt. eigenvalues --    0.91239   0.93355   0.95277   0.98309   0.99965
 Alpha virt. eigenvalues --    1.01050   1.02990   1.05145   1.06578   1.07527
 Alpha virt. eigenvalues --    1.08832   1.10224   1.10422   1.11090   1.11410
 Alpha virt. eigenvalues --    1.11660   1.17574   1.18473   1.21438   1.22445
 Alpha virt. eigenvalues --    1.23674   1.26566   1.30455   1.33825   1.42814
 Alpha virt. eigenvalues --    1.69555   1.71945   2.38315   2.38607   2.39797
 Alpha virt. eigenvalues --    2.42446   2.43427   2.43450   2.43851   2.44178
 Alpha virt. eigenvalues --    2.44300   2.44503   2.44825   2.45306   2.46378
 Alpha virt. eigenvalues --    2.47153   2.50621   2.51029   2.52407   2.53945
 Alpha virt. eigenvalues --    2.55227   2.55442   2.56147   2.56315   2.57062
 Alpha virt. eigenvalues --    2.57230   2.57907   2.58182   2.58732   2.59737
 Alpha virt. eigenvalues --    2.60437   2.61248   2.62026   2.63658   2.63820
 Alpha virt. eigenvalues --    2.64082   2.72251   2.85276   2.88828   2.89719
 Alpha virt. eigenvalues --    2.90706   2.90920   2.91867   2.92790   2.93360
 Alpha virt. eigenvalues --    2.93487   2.93785   2.94753   2.95045   2.95415
 Alpha virt. eigenvalues --    2.95732   2.95938   2.96191   2.96405   2.96801
 Alpha virt. eigenvalues --    2.97089   2.97111   2.97676   2.98464   2.98605
 Alpha virt. eigenvalues --    2.98937   2.99633   3.00767   3.01627   3.02701
 Alpha virt. eigenvalues --    3.03548   3.04307   3.04614   3.05454   3.06616
 Alpha virt. eigenvalues --    3.07658   3.08252   3.08505   3.09098   3.12931
 Alpha virt. eigenvalues --    3.13868   3.14143   3.17555   3.19476   3.20106
 Alpha virt. eigenvalues --    3.21264   3.21811   3.26416   3.26734   3.29735
 Alpha virt. eigenvalues --    3.38214   3.45059   5.05837   5.07325   5.11737
 Alpha virt. eigenvalues --    5.18305   5.18489   5.26075  23.33737  23.37371
 Alpha virt. eigenvalues --   23.41287  23.42926  23.46403  23.50197  23.52887
 Alpha virt. eigenvalues --   23.54848  23.55568  23.57269  23.58548  23.58690
 Alpha virt. eigenvalues --   23.59171  23.61525  23.66022  23.70139  23.71093
 Alpha virt. eigenvalues --   49.87559  49.91968
          Condensed to atoms (all electrons):
 Mulliken charges:
               1
     1  O    0.073618
     2  O   -0.232554
     3  C   -0.439492
     4  C   -0.435503
     5  C   -0.468933
     6  C   -0.449231
     7  C   -0.403873
     8  C   -0.419350
     9  C   -0.451001
    10  C   -0.357628
    11  C   -0.054127
    12  C   -0.381312
    13  C   -0.183186
    14  C   -0.222084
    15  C   -0.747140
    16  C   -0.208922
    17  C   -0.957367
    18  C   -0.830273
    19  C   -0.639669
    20  H    0.210984
    21  H    0.213435
    22  H    0.212500
    23  H    0.213222
    24  H    0.213698
    25  H    0.214206
    26  H    0.213421
    27  H    0.212704
    28  H    0.217002
    29  H    0.216412
    30  H    0.211808
    31  H    0.212202
    32  H    0.220771
    33  H    0.217473
    34  H    0.209536
    35  H    0.208828
    36  H    0.252363
    37  H    0.245980
    38  H    0.209898
    39  H    0.210115
    40  H    0.259124
    41  H    0.294837
    42  H    0.223203
    43  H    0.223086
    44  H    0.306663
    45  H    0.243737
    46  H    0.215912
    47  H    0.215847
    48  H    0.261578
    49  H    0.249910
    50  H    0.284301
    51  H    0.238491
    52  H    0.221906
    53  H    0.232873
 Sum of Mulliken charges =   0.00000
 Mulliken charges with hydrogens summed into heavy atoms:
               1
     1  O    0.073618
     2  O   -0.232554
     3  C   -0.015072
     4  C   -0.009780
     5  C   -0.041030
     6  C   -0.023106
     7  C    0.029542
     8  C    0.004661
     9  C   -0.012758
    10  C    0.060736
    11  C    0.444216
    12  C    0.038701
    13  C    0.370775
    14  C    0.224205
    15  C   -0.747140
    16  C    0.097741
    17  C   -0.281871
    18  C   -0.108297
    19  C    0.127415
 Electronic spatial extent (au):  <R**2>=          22104.1529
 Charge=              0.0000 electrons
 Dipole moment (field-independent basis, Debye):
    X=             -0.8020    Y=              1.8093    Z=             -1.0998  Tot=              2.2641
 Quadrupole moment (field-independent basis, Debye-Ang):
   XX=           -130.5413   YY=           -127.4182   ZZ=           -127.3092
   XY=             15.9292   XZ=             -8.7196   YZ=              2.8270
 Traceless Quadrupole moment (field-independent basis, Debye-Ang):
   XX=             -2.1184   YY=              1.0047   ZZ=              1.1137
   XY=             15.9292   XZ=             -8.7196   YZ=              2.8270
 Octapole moment (field-independent basis, Debye-Ang**2):
  XXX=            105.2637  YYY=              5.6023  ZZZ=             -1.4017  XYY=             14.4291
  XXY=            137.9211  XXZ=            -51.2235  XZZ=              7.5050  YZZ=              3.5515
  YYZ=             -3.9435  XYZ=             33.6646
 Hexadecapole moment (field-independent basis, Debye-Ang**3):
 XXXX=         -29198.0470 YYYY=           -971.3180 ZZZZ=           -362.2732 XXXY=            979.9357
 XXXZ=           -459.7721 YYYX=             53.0275 YYYZ=             -2.2790 ZZZX=             -5.0350
 ZZZY=             -2.7715 XXYY=          -5125.5442 XXZZ=          -5042.1791 YYZZ=           -232.4562
 XXYZ=            154.7182 YYXZ=            -30.5887 ZZXY=             24.9098
 N-N= 1.309365436161D+03 E-N=-4.520746954242D+03  KE= 8.155291872176D+02
 1\1\GINC-X1-CARBON\FOpt\RB3LYP\6-311++G\C17H34O2\CADD\13-Dec-2022\0\\#
  opt b3lyp/6-311++g geom=connectivity\\opt 13c\\0,1\O,5.7402252409,1.0
 715679462,0.2505580896\O,6.2100484901,2.1433255483,-1.7255089797\C,-2.
 1676453307,1.904102196,-0.1672281429\C,-3.4475299677,2.719645578,0.083
 6806968\C,-0.8803426258,2.7434069569,-0.0996943535\C,-4.7335903644,1.8
 774670907,0.0286384105\C,0.3980927013,1.9265674017,-0.3537574791\C,-6.
 013985167,2.6924225887,0.279010316\C,1.6862860857,2.7632723177,-0.2730
 529866\C,-7.2992650136,1.8484526715,0.2332678423\C,2.9580410154,1.9405
 25073,-0.5364278205\C,-8.579815171,2.662885862,0.4830341347\C,4.243482
 1019,2.7940013333,-0.4384527245\C,-9.8653070165,1.8186688614,0.4425580
 784\C,5.4911816568,2.0042864558,-0.7292264816\C,6.9279218101,0.1707884
 983,0.1043378497\C,-11.1388770631,2.6407148754,0.6916161364\C,6.542047
 2611,-1.1243464946,0.8017966136\C,8.1448967286,0.8654338808,0.70428566
 34\H,-2.1073659066,1.092320853,0.567777304\H,-2.2336457428,1.422414090
 8,-1.1502384825\H,-3.3778858798,3.2077064764,1.0633662644\H,-3.5124686
 64,3.5266383477,-0.6561380646\H,-0.9407841996,3.557057261,-0.832457348
 9\H,-0.813234025,3.2221384833,0.8847066868\H,-4.8031316665,1.387923977
 3,-0.9502835072\H,-4.6683376014,1.0714991992,0.7696279924\H,0.45413719
 54,1.1076555141,0.3733293039\H,0.3346735219,1.4553949629,-1.3418436977
 \H,-5.9416818466,3.1865598412,1.2554438072\H,-6.082585486,3.4948735144
 ,-0.4654285675\H,1.6287654401,3.5864256585,-0.9949187254\H,1.754496805
 4,3.2269659422,0.7183204403\H,-7.3714303747,1.3532738263,-0.7426745112
 \H,-7.2305588051,1.0467233572,0.978567157\H,3.0222542886,1.1180717675,
 0.1802581197\H,2.9006892187,1.4901443147,-1.532853825\H,-8.5072859409,
 3.1608870036,1.4576334223\H,-8.6515567485,3.462784427,-0.2641011944\H,
 4.2071545586,3.6174871385,-1.151463693\H,4.3211021957,3.2141046773,0.5
 676012391\H,-9.9373050166,1.3204237828,-0.5308687356\H,-9.7942580489,1
 .0201087852,1.1896915916\H,7.071173794,0.0168403953,-0.9654954982\H,-1
 2.0322688572,2.0128317643,0.6570926585\H,-11.254665324,3.4251971214,-0
 .0612587069\H,-11.1101476011,3.124543284,1.6717552062\H,6.3460355361,-
 0.9495335518,1.8608765697\H,7.9764800209,1.089478092,1.7591963353\H,8.
 3625495164,1.7934137471,0.1763235873\H,5.6472706274,-1.5548396778,0.35
 21494643\H,7.3531814235,-1.8509829676,0.7162336949\H,9.0217682206,0.21
 82799498,0.6256388501\\Version=ES64L-G09RevD.01\State=1-A\HF=-818.7647
 421\RMSD=5.092e-09\RMSF=2.288e-06\Dipole=-0.3312242,-0.4209298,0.71174
 33\Quadrupole=-2.198226,3.7558464,-1.5576205,-7.3219569,11.1320704,0.5
 887427\PG=C01 [X(C17H34O2)]\\@


 THE SECRET OF SUCCESS IN LIFE IS TO EAT WHAT YOU LIKE, AND LET THE FOOD
 FIGHT IT OUT INSIDE YOU. -- FROM A FORTUNE COOKIE
 Job cpu time:       0 days  5 hours 24 minutes  6.4 seconds.
 File lengths (MBytes):  RWF=    127 Int=      0 D2E=      0 Chk=     16 Scr=      1
 Normal termination of Gaussian 09 at Tue Dec 13 11:19:53 2022.
